/*--------------------------------*- C++ -*----------------------------------*\
| =========                 |                                                 |
| \\      /  F ield         | OpenFOAM: The Open Source CFD Toolbox           |
|  \\    /   O peration     | Version:  v1912                                 |
|   \\  /    A nd           | Website:  www.openfoam.com                      |
|    \\/     M anipulation  |                                                 |
\*---------------------------------------------------------------------------*/
FoamFile
{
    version     2.0;
    format      ascii;
    class       volScalarField;
    location    ""10000"";
    object      g1;
}

// * * * * * * * * * * * * * * * * * * * * * * * * * * * * * * * * * * * * * //

dimensions      [0 0 0 0 0 0 0];

internalField   nonuniform List<scalar>
3000
(
-0.10151401381685554
-0.1015139312259769
-0.10151374273762151
-0.10151346624707513
-0.1015134010549533
-0.1015134367503424
-0.10151343136903537
-0.10151342781932705
-0.1015134248126167
-0.10151342288191886
-0.10151342298464891
-0.10151342500500041
-0.10151342855132492
-0.10151343273576116
-0.10151343704486128
-0.10151344124068885
-0.10151344519308184
-0.101513449231967
-0.10151345388095367
-0.10151345902137862
-0.1015134647437683
-0.10151347266719378
-0.10151348648364152
-0.10151350698459732
-0.10151352511462716
-0.10151353129989332
-0.10151352963128002
-0.10151352308503588
-0.10151351366320603
-0.10151350279656914
-0.10151349139703314
-0.10151348002288219
-0.10151346902217104
-0.10151345862250788
-0.10151344897104779
-0.1015134401421661
-0.10151343215620469
-0.10151342535416605
-0.10151341939867901
-0.10151341420136299
-0.10151340972506058
-0.10151340592988665
-0.10151340409723164
-0.10151340270044398
-0.10151340158899946
-0.10151340074021716
-0.10151340013207996
-0.10151339972357742
-0.10151339950741016
-0.10151339945398696
-0.10151339954018107
-0.1015133997441189
-0.10151340004094572
-0.1015134004176531
-0.10151340085199208
-0.10151340133363708
-0.10151340184762032
-0.10151340238082321
-0.10151340292075738
-0.10151340345503798
-0.10151340397155659
-0.10151340445784492
-0.10151340490113323
-0.10151340528809528
-0.10151340560443295
-0.10151340597687167
-0.10151340622688382
-0.1015134062688558
-0.10151340608336767
-0.10151340564287023
-0.10151340521698322
-0.10151340460382965
-0.10151340380932317
-0.101513402868532
-0.10151340182906415
-0.10151340086098287
-0.10151339988770632
-0.10151339948956778
-0.10151339947852119
-0.10151339966402081
-0.10151340016364858
-0.10151340118623603
-0.10151340295024625
-0.10151340578128809
-0.10151341314917489
-0.1015134230060577
-0.10151343552890223
-0.1015134497407876
-0.10151346426293145
-0.10151347976945156
-0.10151349764631297
-0.10151352342762844
-0.1015135707161894
-0.10151369620627933
-0.10151391188029468
-0.10151426902126091
-0.10151473644454756
-0.10151492482794311
-0.10151462999693467
-0.10151422636334606
-0.10151461634437503
-0.10151469517222984
-0.10151435312454599
-0.10151416305991139
-0.10151430598971983
-0.10151363806013651
-0.10151345575547564
-0.101513520559363
-0.10151356556447132
-0.10151363191281014
-0.10151368599238116
-0.10151371011256956
-0.10151372601374421
-0.10151375170892346
-0.10151378164049234
-0.10151381718320603
-0.10151385913898409
-0.1015138975596851
-0.10151391842700974
-0.10151392017418
-0.1015138900219864
-0.10151382017310538
-0.10151369872357822
-0.10151356921016245
-0.1015135280394049
-0.10151350161410692
-0.10151347932392693
-0.10151345788658728
-0.10151344207870576
-0.10151343019646955
-0.10151342138474662
-0.10151341444858243
-0.10151340906505134
-0.10151340533695553
-0.10151340386216745
-0.10151340305768335
-0.10151340290314315
-0.1015134033760694
-0.10151340447287999
-0.10151340661190734
-0.10151341087231058
-0.10151341619861168
-0.10151342259839849
-0.10151342995521684
-0.10151343878634128
-0.10151344842635535
-0.1015134587516604
-0.10151346990311826
-0.10151348150981637
-0.10151349374205904
-0.10151350659370392
-0.10151351995644756
-0.10151353377816842
-0.10151354764998263
-0.10151356209563592
-0.10151358365025547
-0.10151360690855567
-0.10151363026363776
-0.101513653607217
-0.10151367681724997
-0.1015136997934007
-0.10151372242309993
-0.1015137445954548
-0.10151376619246912
-0.10151378702291991
-0.10151380678522619
-0.10151382288302935
-0.10151383380835159
-0.10151384087492832
-0.10151384384518448
-0.10151384208374459
-0.10151383515007062
-0.10151382240918268
-0.10151380304113863
-0.10151377413837838
-0.1015137422810069
-0.10151368227639251
-0.10151368776583279
-0.10151370293493445
-0.101513708133721
-0.10151371360619695
-0.10151371458748995
-0.10151372099522292
-0.10151373346608501
-0.10151375480316725
-0.10151378634218972
-0.10151383198283437
-0.10151389793072345
-0.10151397575665466
-0.10151405582648951
-0.10151412768358625
-0.10151416553371545
-0.10151415398146628
-0.10151409015365931
-0.1015139479553721
-0.10151371448592038
-0.10151355206823895
-0.10151356338931894
-0.10151377274421734
-0.1015141360279924
-0.10151384601750685
-0.10151386843323475
-0.10151395410070406
-0.10151408083965702
-0.10151456206099632
-0.10151634972183561
-0.10151588643592235
-0.10151373806860405
-0.10151342829940417
-0.10151339948258156
-0.10151340643470291
-0.10151342303899671
-0.1015134322984523
-0.1015134367952857
-0.10151344203054832
-0.1015134502004209
-0.10151346206195785
-0.10151347523367753
-0.10151348225245349
-0.10151347908429567
-0.10151346738297416
-0.10151344611848523
-0.1015134148991212
-0.101513400844246
-0.10151342701570805
-0.10151347622775524
-0.10151351527873995
-0.10151353989377687
-0.10151355704911062
-0.1015135728388529
-0.10151358864723622
-0.10151360175668198
-0.10151361321195082
-0.10151362365326207
-0.10151363340342427
-0.10151364284888208
-0.10151365233131017
-0.10151366190205574
-0.10151367182781383
-0.10151368198615117
-0.1015136928499543
-0.10151370397848958
-0.10151371616129311
-0.1015137282019831
-0.10151373930605223
-0.10151374970375183
-0.10151376121951368
-0.10151376845705316
-0.10151378127155081
-0.10151379503667621
-0.10151380973120872
-0.10151382517363922
-0.10151384135951237
-0.10151385809119243
-0.10151387555441352
-0.10151389347399113
-0.10151391200481061
-0.10151393120549076
-0.10151395104925565
-0.10151397157708486
-0.1015139928885392
-0.10151401507288924
-0.10151403828778421
-0.10151406274330982
-0.10151408873215106
-0.10151411667642649
-0.1015141472174032
-0.10151417950213627
-0.1015142071647101
-0.10151423565369887
-0.10151426650942393
-0.1015143004504356
-0.10151433879550949
-0.10151438199634175
-0.10151443138467992
-0.10151448600824903
-0.1015145487982954
-0.1015148184441378
-0.10151498520467096
-0.10151491821629317
-0.10151479770121324
-0.10151466378110748
-0.10151453062230212
-0.10151440769003935
-0.10151430402162767
-0.10151421862401916
-0.10151415692278155
-0.1015141313558845
-0.10151414108548315
-0.10151417400911615
-0.10151421588759814
-0.10151423160379577
-0.10151419305442207
-0.10151412449208279
-0.10151408564818218
-0.1015141254294288
-0.10151400332858296
-0.10151350601178746
-0.10151343150516615
-0.10151361831861304
-0.10151350087866245
-0.10151350638279864
-0.10151369242998443
-0.10151395871803862
-0.10151429431222793
-0.10151542942175476
-0.10151739522672974
-0.10151774596303566
-0.1015155162718578
-0.10151465798774888
-0.10151420642961569
-0.10151394730926758
-0.1015138027204221
-0.10151369890916136
-0.10151360138080212
-0.10151352978186198
-0.1015134800976491
-0.10151344228921333
-0.10151341988933289
-0.10151340900522278
-0.10151340471205729
-0.1015134053636788
-0.10151342562263695
-0.10151350114242286
-0.10151366632455107
-0.10151381554258783
-0.10151391261396098
-0.10151397292651264
-0.10151400989833356
-0.10151403240760397
-0.10151404564339792
-0.10151405290264595
-0.10151405648259788
-0.1015140575502479
-0.10151405666031381
-0.10151405468917135
-0.1015140522497361
-0.10151404944462579
-0.10151404695809939
-0.10151404402674558
-0.10151404231583144
-0.10151404007811024
-0.10151403566684583
-0.10151403046245604
-0.10151402224138997
-0.10151401551509673
-0.10151401256931813
-0.10151400952684979
-0.10151400905716265
-0.10151400889914602
-0.10151400971312861
-0.10151401140325558
-0.10151401396940227
-0.10151401735300664
-0.10151402134381311
-0.10151402576135958
-0.10151403082695008
-0.10151403656808254
-0.10151404299382853
-0.10151405016629796
-0.10151405807214864
-0.10151406691701062
-0.10151407683653706
-0.10151408797686717
-0.101514100720996
-0.10151411552846101
-0.10151413307233073
-0.10151415398238844
-0.10151417864148529
-0.10151420403235968
-0.10151423549885569
-0.10151427431638535
-0.10151432328973956
-0.10151438499200485
-0.10151446495085459
-0.10151456307746434
-0.10151469885102873
-0.10151494914801545
-0.10151520566494261
-0.10151531996014163
-0.10151532630370633
-0.1015152620363415
-0.10151515994223914
-0.10151504125983334
-0.1015149197741335
-0.1015148052281956
-0.10151470832339357
-0.1015146487597696
-0.10151464401532749
-0.10151469423259651
-0.10151479748550939
-0.1015149405739576
-0.1015151043159499
-0.10151530087716494
-0.10151555001585015
-0.10151572032960919
-0.10151526528601035
-0.10151417466129145
-0.10151352671512413
-0.10151347571062919
-0.10151345784210809
-0.10151347669750524
-0.10151367487131388
-0.10151394699848472
-0.10151415919331669
-0.10151468353037989
-0.10151592748696825
-0.10151746414864811
-0.10151828509935941
-0.10151671423573799
-0.10151584830701245
-0.10151531123004573
-0.10151500413525573
-0.10151473258113541
-0.10151446496074984
-0.10151420165059494
-0.1015139608879947
-0.10151375934953498
-0.1015136150970305
-0.10151353999273938
-0.10151350848394156
-0.10151350347121463
-0.10151354651379993
-0.10151372592387582
-0.10151399169483724
-0.10151417761881686
-0.10151431414888672
-0.1015144020075462
-0.10151445689020984
-0.10151448905607943
-0.10151450558255334
-0.10151451197611494
-0.1015145118914109
-0.10151450735592117
-0.10151449909318241
-0.1015144887808621
-0.10151447681797153
-0.10151446403897288
-0.10151445228357184
-0.10151443754944546
-0.10151442126070714
-0.10151440324804493
-0.1015143818097886
-0.1015143622171585
-0.10151434500050231
-0.10151432904964805
-0.10151431500775344
-0.10151430229689441
-0.10151429099175392
-0.1015142798456151
-0.10151426967204737
-0.10151426054357651
-0.10151425249460373
-0.10151424550856726
-0.10151423927589716
-0.10151423356389912
-0.10151422870052623
-0.10151422459022627
-0.10151422132819962
-0.10151421890690773
-0.1015142173744296
-0.10151421688507099
-0.10151421758158691
-0.10151421963410083
-0.10151422353037506
-0.10151422968286945
-0.10151423877889863
-0.10151425142858388
-0.10151426909549618
-0.10151429042939111
-0.10151431776325937
-0.10151435353745417
-0.10151440019110458
-0.10151446196186201
-0.10151454401922347
-0.1015146473328652
-0.10151479071453738
-0.10151502192775198
-0.10151531228242333
-0.10151555412247384
-0.10151572105552864
-0.10151580823095056
-0.10151583502189408
-0.10151581937476895
-0.10151577547168794
-0.10151571762989872
-0.10151566516449678
-0.10151564887449376
-0.10151570625436948
-0.10151585635594938
-0.10151611199550821
-0.10151647328960096
-0.10151689859507992
-0.10151733360176814
-0.10151764833718879
-0.10151749449601473
-0.10151635578132384
-0.10151467812773897
-0.10151368655114645
-0.10151347500596497
-0.10151346759877239
-0.10151350127753876
-0.10151371881333589
-0.10151398809808879
-0.10151411532053976
-0.1015143756250059
-0.10151498676400308
-0.1015161583618295
-0.10151746471636273
-0.10151816685161508
-0.10151771822033065
-0.10151679767635455
-0.10151627537289595
-0.1015158324521496
-0.1015154316537143
-0.1015150268899956
-0.1015146425018979
-0.10151430799434298
-0.10151405462433816
-0.10151388304291915
-0.10151378132802658
-0.10151375365528324
-0.10151383522506426
-0.1015140608684364
-0.10151435635018732
-0.10151457293247887
-0.1015147427827081
-0.10151485522137037
-0.10151492504677938
-0.1015149656041892
-0.10151498582685264
-0.10151499307309099
-0.1015149910749744
-0.10151498287405646
-0.10151496978338714
-0.10151495497266957
-0.10151493522343029
-0.10151491393803379
-0.10151488932181182
-0.10151486112678987
-0.10151483005655076
-0.10151479952008191
-0.10151477084654707
-0.1015147436727559
-0.10151471821651611
-0.10151469365950577
-0.10151467015777442
-0.10151464824622534
-0.10151462741581985
-0.10151460673070099
-0.10151458702260997
-0.10151456842429292
-0.10151455110811444
-0.10151453494167599
-0.10151451965468371
-0.1015145052676839
-0.10151449180586682
-0.1015144793864138
-0.1015144679030728
-0.1015144575185567
-0.10151444829509286
-0.1015144403768522
-0.1015144338898308
-0.10151442919476665
-0.10151442680513306
-0.10151442720491873
-0.10151443120200726
-0.10151443971802761
-0.1015144536216168
-0.10151447503508976
-0.10151450216815178
-0.10151453941478658
-0.10151458833278386
-0.10151465201459496
-0.1015147370178469
-0.10151484577429333
-0.10151499222359928
-0.1015152147897764
-0.10151550850486465
-0.10151581765603934
-0.10151610001657672
-0.1015163288289071
-0.10151650250629886
-0.10151662688232563
-0.10151671273950376
-0.10151677480826996
-0.10151683868654805
-0.10151694319393278
-0.10151713523595493
-0.10151744568827613
-0.10151788843363063
-0.10151845147729996
-0.10151905523421408
-0.10151952607525445
-0.10151958015635495
-0.1015187969745632
-0.10151695875832112
-0.10151491158109488
-0.10151378390127103
-0.10151349594292745
-0.10151348357231652
-0.10151353455801465
-0.10151376204942905
-0.10151403360155904
-0.10151412691816514
-0.10151424925116563
-0.10151456396633252
-0.10151518163180268
-0.10151618835095766
-0.10151724919900215
-0.10151771956922163
-0.10151825141028394
-0.10151776694033081
-0.10151712504671075
-0.10151653800848111
-0.10151598707963203
-0.10151548229392346
-0.1015150364050706
-0.10151467597531895
-0.10151441661461413
-0.1015142600703724
-0.1015142029104007
-0.10151427815069716
-0.10151452222496163
-0.1015148064408184
-0.10151502993871325
-0.10151520339342901
-0.10151532119762274
-0.10151539508885918
-0.10151543789308945
-0.10151545906377699
-0.10151546746145741
-0.10151546322148333
-0.10151545039025198
-0.10151543259391319
-0.10151540956865283
-0.10151538018035253
-0.10151534895829255
-0.1015153123478708
-0.1015152773997492
-0.10151524235785625
-0.10151520813877708
-0.10151517481040732
-0.10151514240688717
-0.1015151109927898
-0.1015150802371659
-0.10151505013243309
-0.1015150212979136
-0.10151499331371433
-0.10151496559610175
-0.10151493880020039
-0.10151491304735044
-0.1015148885029962
-0.10151486513963634
-0.10151484290169564
-0.10151482170095606
-0.10151480149733773
-0.10151478248651433
-0.10151476458445358
-0.10151474804185211
-0.1015147328943061
-0.10151471932943519
-0.1015147075797262
-0.10151469813450499
-0.10151469141927918
-0.10151468823122695
-0.10151468941836245
-0.10151469600064428
-0.10151470900543245
-0.10151473116518117
-0.10151476089865571
-0.10151480222790386
-0.10151485619616928
-0.10151492614101018
-0.1015150193643571
-0.10151513902001526
-0.10151529292247413
-0.1015155125492845
-0.10151580268453782
-0.10151614370590308
-0.10151649418155478
-0.10151681939320242
-0.10151711428069733
-0.10151737574352651
-0.10151760601803511
-0.1015178194383609
-0.1015180440698471
-0.10151831930427176
-0.10151868920474658
-0.10151917899261775
-0.10151978315344744
-0.10152045011051918
-0.10152103635751045
-0.10152127534720083
-0.10152082484689953
-0.1015193754050626
-0.10151707650982073
-0.10151492600042356
-0.10151379620556567
-0.10151350173863588
-0.10151348593091948
-0.10151355607899071
-0.10151378404368938
-0.10151405277934782
-0.10151415856105217
-0.10151421204408982
-0.10151436666465746
-0.1015146917014386
-0.10151524040476645
-0.10151604279103672
-0.1015168150116621
-0.10151748285129128
-0.10151785062618947
-0.10151810123555488
-0.1015177949566347
-0.1015171938174962
-0.10151656751532417
-0.10151599184271683
-0.10151553048109976
-0.10151519046082107
-0.10151497102160349
-0.10151486457597252
-0.10151492382768751
-0.10151512281434509
-0.10151535082156073
-0.1015155467120589
-0.10151569410782967
-0.10151579637405966
-0.1015158603852077
-0.1015158959725014
-0.10151591202911628
-0.10151591365630769
-0.10151590302106742
-0.10151588387088081
-0.10151585931209955
-0.10151582772687068
-0.10151579379340785
-0.10151575889287721
-0.10151572236996373
-0.10151568582327004
-0.10151564873021801
-0.10151561198318938
-0.10151557560216706
-0.10151553962942245
-0.10151550418046548
-0.10151546921039517
-0.10151543465115616
-0.10151540101179646
-0.10151536791236267
-0.10151533536774145
-0.10151530357489834
-0.10151527280319454
-0.10151524307648899
-0.10151521455590477
-0.10151518724937417
-0.10151516099032258
-0.10151513595928863
-0.10151511214017826
-0.10151508980085368
-0.10151506890623155
-0.10151504972577947
-0.10151503249156456
-0.10151501752877724
-0.10151500538322385
-0.10151499651264274
-0.10151499192874089
-0.10151499249897147
-0.10151499942593399
-0.10151501402211606
-0.10151503842886017
-0.10151507355149071
-0.10151512135263642
-0.1015151836035453
-0.10151526383934578
-0.10151536983076084
-0.10151550489516202
-0.10151567164308635
-0.10151589325935435
-0.10151618409745514
-0.1015165337667277
-0.1015169117680507
-0.10151729913541765
-0.10151768159541216
-0.10151805321489267
-0.10151841346337423
-0.1015187749474401
-0.10151916285365002
-0.10151960714965104
-0.10152013473369248
-0.10152074874804548
-0.101521408076025
-0.10152201394199807
-0.1015223732386746
-0.10152219200034655
-0.10152119066502541
-0.10151927095096926
-0.10151684430332289
-0.1015148128887021
-0.10151375970630092
-0.10151348753759665
-0.10151346593003888
-0.10151355030614698
-0.1015137687073084
-0.1015140297056468
-0.1015141754212209
-0.10151421781714995
-0.10151428736468004
-0.10151444987975179
-0.10151473877385858
-0.10151518242303752
-0.10151576327094482
-0.10151641984842343
-0.10151695101722176
-0.10151739576579272
-0.10151767121533824
-0.101517728451965
-0.1015175334771519
-0.10151713782280722
-0.1015166479710527
-0.10151622884455334
-0.10151592841790724
-0.10151574501898797
-0.10151573104333116
-0.10151580945901093
-0.10151594799595004
-0.10151607481192584
-0.10151617770857181
-0.1015162492041144
-0.10151629336489282
-0.10151631547809176
-0.10151632163228713
-0.10151631351688985
-0.10151629775744753
-0.10151627548203099
-0.10151624839274262
-0.10151621779493299
-0.1015161846179172
-0.10151614926236462
-0.1015161126872697
-0.1015160753710684
-0.10151603743606316
-0.1015159994396367
-0.10151596144816642
-0.10151592349041397
-0.10151588589636984
-0.10151584848894528
-0.10151581144468132
-0.10151577492681534
-0.1015157389369943
-0.1015157034767596
-0.10151566875625459
-0.10151563493020886
-0.10151560215822396
-0.10151557048069113
-0.10151553997838142
-0.10151551070941163
-0.10151548275689377
-0.10151545614961756
-0.10151543126035163
-0.10151540800922276
-0.10151538674147717
-0.10151536781631791
-0.10151535169315135
-0.10151533877868908
-0.10151532991289478
-0.10151532591637229
-0.10151532781756832
-0.10151533706970486
-0.10151535521192112
-0.10151538375001186
-0.10151542528388628
-0.10151547998465069
-0.10151555166664251
-0.10151564398570241
-0.10151576421254109
-0.10151591556979167
-0.1015160972344
-0.1015163232786145
-0.1015166124649254
-0.10151695459269874
-0.10151734388008885
-0.10151776051693581
-0.10151819346136247
-0.10151863739151736
-0.10151909128722232
-0.1015195638216787
-0.10152007044909596
-0.10152062396941094
-0.1015212254859613
-0.10152184835351451
-0.1015224264933928
-0.10152294902460565
-0.10152295040913682
-0.10152216849938082
-0.10152076553833868
-0.10151868915399004
-0.10151643199282671
-0.10151465678057187
-0.10151371264248475
-0.10151346123502732
-0.10151342997286442
-0.10151351447260361
-0.10151370613242396
-0.10151396002299314
-0.1015141496395063
-0.10151422661966637
-0.10151426674037213
-0.10151434327566644
-0.10151448738802624
-0.10151471821360027
-0.10151503888987935
-0.10151545598036846
-0.10151593251478243
-0.10151640517197162
-0.10151679105095335
-0.10151707390547261
-0.10151724907112929
-0.10151730391910735
-0.10151722148525696
-0.10151704957123552
-0.10151683571382637
-0.10151664413589614
-0.10151651295592816
-0.10151647597125539
-0.10151650443331287
-0.10151655056060337
-0.1015165952969958
-0.10151663020801369
-0.10151665299975114
-0.10151666350401305
-0.10151666373334385
-0.10151665563515018
-0.10151664085007939
-0.10151662011196522
-0.10151659501389772
-0.10151656686067474
-0.1015165361498357
-0.1015165032936934
-0.10151646907399753
-0.10151643349385221
-0.10151639661879369
-0.10151635927401399
-0.10151632159483422
-0.10151628376585504
-0.10151624602031245
-0.10151620822061938
-0.10151617066441372
-0.10151613343260417
-0.10151609663940242
-0.10151606031213398
-0.10151602464193087
-0.10151598976664984
-0.10151595588896738
-0.10151592310827472
-0.10151589145115625
-0.10151586104939885
-0.10151583211008268
-0.10151580475107037
-0.10151577908948421
-0.10151575540023854
-0.10151573405064868
-0.10151571532939209
-0.10151569973694627
-0.10151568793903694
-0.1015156806685571
-0.10151567879951286
-0.10151568355649432
-0.10151569625573964
-0.10151571856659194
-0.10151575165028898
-0.10151579827331832
-0.10151585948525209
-0.10151593941176303
-0.10151604217485027
-0.10151617407812089
-0.10151633757041299
-0.10151652831590974
-0.10151675125728463
-0.10151703262096408
-0.10151736515790778
-0.10151774834449574
-0.10151816823979484
-0.10151861761672158
-0.101519092093326
-0.10151958820065579
-0.10152010775589265
-0.10152065145048414
-0.10152121169556934
-0.10152176638552246
-0.10152226516816776
-0.1015227035468076
-0.10152280517686454
-0.10152231880828845
-0.10152136075507819
-0.10151981401071063
-0.10151787786124004
-0.1015159654489476
-0.10151450798979422
-0.10151368222989011
-0.10151343770252105
-0.10151340276932358
-0.1015134644236405
-0.10151360581542848
-0.10151384798246813
-0.10151406838308806
-0.10151420161567101
-0.1015142606096036
-0.10151430522554086
-0.10151437399856197
-0.10151448567897935
-0.10151464724264883
-0.10151486584576086
-0.10151514240836966
-0.10151547017570577
-0.10151582527337724
-0.10151616617942104
-0.1015164516045693
-0.10151665473474943
-0.10151677553582533
-0.10151681951372069
-0.10151679645046935
-0.1015167625301222
-0.10151672683370043
-0.1015167403108768
-0.10151676958364912
-0.10151680171308781
-0.10151682778247505
-0.10151685025213919
-0.10151686822166409
-0.10151687983671741
-0.10151688485925815
-0.10151688380921063
-0.1015168771160584
-0.10151686515460726
-0.10151684887378225
-0.10151682905391365
-0.10151680615904386
-0.10151678069077617
-0.1015167531742434
-0.10151672401750902
-0.10151669350137207
-0.10151666189200304
-0.10151662947655694
-0.10151659643086905
-0.10151656290031406
-0.10151652909857449
-0.10151649511952728
-0.10151646118839021
-0.10151642691225035
-0.10151639265422703
-0.10151635885635835
-0.10151632569534613
-0.10151629330668434
-0.1015162618987616
-0.10151623154654352
-0.1015162024971734
-0.10151617488361153
-0.10151614891504754
-0.10151612474574527
-0.10151610278276467
-0.10151608334517481
-0.10151606678503536
-0.10151605362869982
-0.10151604459056168
-0.10151604034419082
-0.10151604188166466
-0.10151605029942597
-0.10151606688119674
-0.10151609300826164
-0.10151612960226744
-0.10151617897423099
-0.10151624469002778
-0.10151632931281744
-0.10151643764424281
-0.10151657160401684
-0.10151673427287636
-0.10151692340578852
-0.1015171399486199
-0.10151740525737268
-0.10151771857250992
-0.10151807944031839
-0.10151847913916172
-0.10151891160452849
-0.10151937075418993
-0.10151984802913472
-0.10152033552762928
-0.10152081970870445
-0.10152127785500609
-0.10152167448369713
-0.10152195288958271
-0.10152202822463763
-0.10152180078630879
-0.10152117181372898
-0.10152009346976057
-0.10151865011875082
-0.10151704161783406
-0.10151553473179507
-0.1015143883989498
-0.10151368321587545
-0.101513433884982
-0.10151340146003095
-0.10151342860078826
-0.10151352516930842
-0.10151371388843726
-0.10151393924133176
-0.10151412004799627
-0.10151422753926555
-0.10151428631494204
-0.10151433130432241
-0.10151438425665517
-0.10151445757452973
-0.10151456013183953
-0.10151469538731121
-0.10151486644925872
-0.10151507306833293
-0.10151530640983197
-0.10151554978378208
-0.10151578145761068
-0.10151597787633937
-0.10151611942631619
-0.1015161967355539
-0.1015162438689457
-0.10151628468407471
-0.10151636038562319
-0.10151645020750599
-0.10151653676857104
-0.10151661077667203
-0.1015166755275236
-0.10151673230690414
-0.10151678033357758
-0.10151681940619219
-0.10151685003711317
-0.10151687281435369
-0.10151688839302783
-0.10151689768075657
-0.10151690136652142
-0.10151690024082559
-0.10151689489529349
-0.1015168858877261
-0.10151687378455022
-0.10151685903896869
-0.10151684194814997
-0.10151682287252586
-0.10151680220323789
-0.10151678010508144
-0.10151675689345258
-0.10151673278063622
-0.10151670795743492
-0.10151668266513289
-0.10151665718405813
-0.10151663162555087
-0.10151660624628125
-0.10151658124119467
-0.10151655678692115
-0.1015165331440795
-0.1015165105050366
-0.10151648900322273
-0.10151646906519925
-0.10151645083811213
-0.10151643442952034
-0.10151642034256265
-0.10151640923294108
-0.10151640156164772
-0.101516397933568
-0.10151639916413234
-0.10151640605652705
-0.10151641962143976
-0.10151644102318066
-0.10151647051467022
-0.10151650851137721
-0.10151655907388249
-0.10151662337629745
-0.10151670640598456
-0.10151681092195884
-0.1015169399850835
-0.10151709341488523
-0.10151726970528996
-0.10151746720358444
-0.10151770469013549
-0.10151798449588277
-0.10151830560369787
-0.10151866053095063
-0.10151904093415909
-0.10151943656882649
-0.10151983304476259
-0.10152021421125006
-0.10152055832945923
-0.10152083833496715
-0.10152101879319396
-0.10152105388114156
-0.10152088520564037
-0.10152045577672714
-0.10151972942845046
-0.10151872158397734
-0.10151753335541118
-0.10151630469157258
-0.10151517741629382
-0.10151430569817889
-0.10151371993967713
-0.10151346168644092
-0.10151343545911129
-0.10151343129382297
-0.10151348678656476
-0.10151359776870955
-0.10151379396669266
-0.10151398865255773
-0.10151414082201381
-0.1015142414126054
-0.10151430411554031
-0.10151434616696449
-0.10151438219677435
-0.10151442413613676
-0.10151447997650033
-0.10151455361325545
-0.10151464840760153
-0.10151476306122442
-0.10151489298625692
-0.10151503130140062
-0.10151516821977984
-0.10151529419914604
-0.10151540362235795
-0.10151550189907205
-0.1015155989115596
-0.10151568333119296
-0.10151577691527472
-0.1015158826552201
-0.10151598667036453
-0.10151608570038888
-0.10151617933635429
-0.10151626646667969
-0.10151634615614465
-0.10151641791694335
-0.10151648096933073
-0.10151653586909559
-0.10151658355376617
-0.10151662458042104
-0.10151665934833429
-0.10151668841532846
-0.1015167123080886
-0.10151673148960132
-0.1015167464535325
-0.10151675763449633
-0.10151676545067166
-0.10151677021242982
-0.10151677237677108
-0.10151677219991112
-0.1015167700274541
-0.10151676612172177
-0.10151676083217534
-0.10151675441718251
-0.10151674709310674
-0.10151673922471649
-0.1015167309963201
-0.10151672272521912
-0.10151671467676873
-0.10151670703822392
-0.10151670014216249
-0.10151669430228731
-0.10151668983118242
-0.10151668703478163
-0.10151668631366173
-0.10151668814009217
-0.10151669288752935
-0.10151670121512944
-0.10151671367436495
-0.10151673104241586
-0.10151675402985026
-0.1015167833127827
-0.10151681855218415
-0.10151686152719164
-0.10151691461039077
-0.10151697957568481
-0.10151706067749985
-0.10151715869690175
-0.10151727523386243
-0.1015174086374501
-0.10151755948835738
-0.10151772628529035
-0.10151792366664929
-0.10151815626288062
-0.10151841952563623
-0.10151870414350801
-0.10151899838928997
-0.1015192884686502
-0.10151955640056082
-0.10151978411215158
-0.10151995096170503
-0.10152003465542693
-0.10152001066738595
-0.10151985284200594
-0.10151953208184708
-0.10151902920077349
-0.101518345607828
-0.10151751724160582
-0.10151662171907243
-0.10151572252328471
-0.10151491139634687
-0.10151426166513404
-0.10151378999556038
-0.10151352257083571
-0.10151351290875253
-0.10151347959770032
-0.10151349353100986
-0.10151354854223449
-0.10151367792477557
-0.10151384523847373
-0.10151400794867135
-0.101514143169399
-0.10151424316026561
-0.1015143093642723
-0.10151435027479337
-0.10151437722149055
-0.10151439930983217
-0.1015144239066795
-0.10151445735973512
-0.10151450105801746
-0.10151455451587589
-0.10151461585473943
-0.10151468160693526
-0.10151474889708903
-0.10151481823683703
-0.10151488966467537
-0.10151496535127524
-0.10151502805614993
-0.10151509314647036
-0.10151517665640838
-0.10151526839950614
-0.10151536224937478
-0.10151545625392455
-0.10151554899814946
-0.10151563905623559
-0.1015157253769913
-0.10151580724492634
-0.10151588423957572
-0.10151595618749684
-0.10151602304424567
-0.10151608489243127
-0.10151614188103061
-0.10151619426131962
-0.10151624227027274
-0.10151628620184482
-0.1015163263745298
-0.10151636310288262
-0.10151639668993064
-0.10151642736349481
-0.10151645529111944
-0.10151648056641877
-0.10151650391665609
-0.10151652558795753
-0.10151654584295959
-0.10151656499759892
-0.10151658326589462
-0.10151660094902247
-0.10151661827617771
-0.10151663561341547
-0.10151665311030075
-0.1015166711577418
-0.10151668995707147
-0.10151670990017313
-0.1015167312318176
-0.10151675437540511
-0.10151677962559379
-0.10151680741541315
-0.10151683808347896
-0.10151687206392222
-0.10151690973325105
-0.1015169513466294
-0.10151699638506702
-0.10151704565957714
-0.10151710156022635
-0.10151716447178868
-0.1015172376177268
-0.10151732001486878
-0.1015174120264873
-0.10151751364390442
-0.10151762144503801
-0.10151773915028531
-0.10151786811955531
-0.10151801456435512
-0.10151818483242062
-0.10151837021257076
-0.10151855956529639
-0.10151874009467747
-0.10151889837296477
-0.10151901896356574
-0.10151908812236986
-0.10151909227322829
-0.10151901978638589
-0.10151885860676915
-0.10151859999716349
-0.10151823558833475
-0.10151776596189023
-0.10151720553505457
-0.1015165846220608
-0.10151593708980025
-0.10151530740422868
-0.10151473346846512