/*--------------------------------*- C++ -*----------------------------------*\
| =========                 |                                                 |
| \\      /  F ield         | OpenFOAM: The Open Source CFD Toolbox           |
|  \\    /   O peration     | Version:  v1912                                 |
|   \\  /    A nd           | Website:  www.openfoam.com                      |
|    \\/     M anipulation  |                                                 |
\*---------------------------------------------------------------------------*/
FoamFile
{
    version     2.0;
    format      ascii;
    class       volScalarField;
    location    "10000";
    object      k;
}
// * * * * * * * * * * * * * * * * * * * * * * * * * * * * * * * * * * * * * //

dimensions      [0 2 -2 0 0 0 0];


internalField   nonuniform List<scalar> 
3000
(
0.00645704
0.00485099
0.00335526
0.000817635
0.00070595
0.000800988
0.000591475
0.000479592
0.00037246
0.000288605
0.00025013
0.000246471
0.000264008
0.000288101
0.000308471
0.000321706
0.000326484
0.000326186
0.000328028
0.000336653
0.000358098
0.000414079
0.000546613
0.000761827
0.000959942
0.00107525
0.00113387
0.00115673
0.00114471
0.0011088
0.00105828
0.000999462
0.000936383
0.00087172
0.000807443
0.000745026
0.000685246
0.000628407
0.000575109
0.000525413
0.000479203
0.000436592
0.000397384
0.000361454
0.000328437
0.000298483
0.000271258
0.000246027
0.000223622
0.000203319
0.000185268
0.000169193
0.000154924
0.00014725
0.000148864
0.000150326
0.000151479
0.000152247
0.000152563
0.000152354
0.000151541
0.000150036
0.000147739
0.000144543
0.000140352
0.000135151
0.000129245
0.000122511
0.000114874
0.000105882
9.53009e-05
8.31742e-05
6.98058e-05
5.5785e-05
4.17376e-05
3.25188e-05
3.50448e-05
4.48517e-05
6.11674e-05
8.20254e-05
9.89911e-05
0.000129957
0.000196044
0.000287485
0.000406002
0.00055521
0.000726318
0.000897249
0.00109731
0.00135401
0.00172824
0.0024093
0.00363766
0.00565534
0.00873548
0.0127548
0.0160527
0.0167978
0.0143391
0.00993105
0.00895137
0.00753328
0.00531293
0.00272244
0.00125345
0.000716618
0.000882414
0.000853869
0.00065867
0.000470543
0.000387552
0.000370683
0.000393582
0.00044751
0.000520516
0.000609412
0.000710471
0.000818163
0.000933328
0.00106484
0.00122038
0.0014298
0.00175063
0.0022732
0.00299664
0.00362361
0.00413756
0.00445171
0.00465595
0.00478688
0.0048642
0.00490171
0.0049086
0.00489123
0.00485508
0.0048052
0.00474458
0.00467448
0.00459819
0.00451711
0.00443153
0.00434337
0.0042528
0.00416109
0.00406653
0.0039718
0.00388081
0.00378326
0.00368711
0.00359504
0.00350651
0.00342094
0.00333803
0.00325651
0.00317665
0.00309817
0.00302075
0.00294397
0.0028674
0.00279059
0.00271306
0.00263426
0.00255357
0.00247025
0.00238345
0.00229209
0.0021913
0.00207942
0.00196658
0.00184683
0.00171702
0.00157618
0.00142465
0.00126383
0.00109397
0.000925176
0.000741169
0.00075081
0.00104968
0.00153471
0.00202003
0.00249742
0.00301672
0.00355377
0.00408777
0.00460959
0.00507918
0.00546141
0.00588139
0.0064246
0.00723767
0.00864092
0.0107752
0.0135379
0.0167095
0.0195174
0.0199337
0.0169333
0.0135303
0.0106093
0.0190793
0.0163134
0.0122598
0.00749785
0.00421557
0.00376972
0.00503966
0.00453928
0.00363354
0.00280347
0.00235866
0.00214772
0.00213614
0.00226366
0.00246053
0.00270403
0.00298226
0.00328744
0.00363143
0.00404222
0.00453699
0.00516626
0.00602007
0.00724599
0.00879005
0.0100258
0.0108593
0.011412
0.0117937
0.0120517
0.0122168
0.012311
0.0123493
0.0123425
0.0122996
0.0122287
0.0121351
0.0120217
0.0118932
0.0117525
0.0116006
0.0114405
0.0112721
0.0110992
0.0109178
0.010733
0.0105534
0.0103686
0.0101858
0.0100059
0.00982904
0.00965519
0.00948412
0.00931494
0.00914728
0.00898106
0.00881618
0.0086523
0.008489
0.00832578
0.00816203
0.00799709
0.00783018
0.00766031
0.00748638
0.00730692
0.00711927
0.00691631
0.00668441
0.00643745
0.00616958
0.00587564
0.00555123
0.00519193
0.00479336
0.00435455
0.003866
0.00389243
0.00446957
0.00538423
0.00639047
0.00743023
0.00853399
0.00967592
0.010823
0.0119504
0.0130111
0.0139774
0.0149822
0.0161571
0.0177049
0.019971
0.0230759
0.0268274
0.0308712
0.0343935
0.0354694
0.0321671
0.0267113
0.0219181
0.0301275
0.0266449
0.0214145
0.0146533
0.00905192
0.00657092
0.00908716
0.0121597
0.00988796
0.00785111
0.00653705
0.00578028
0.00542325
0.00535838
0.00545148
0.00566341
0.00597795
0.00638952
0.00691426
0.00757902
0.00839346
0.00939585
0.0106535
0.0122614
0.01407
0.0154906
0.0164683
0.0171628
0.0176514
0.0179845
0.0181986
0.0183206
0.0183694
0.0183591
0.0183008
0.0182048
0.018078
0.0179252
0.017751
0.0175597
0.0173529
0.0171345
0.016903
0.0166656
0.0164242
0.0161803
0.0159389
0.015696
0.0154542
0.0152138
0.0149759
0.0147406
0.0145081
0.014278
0.0140498
0.0138233
0.0135984
0.0133749
0.0131523
0.0129302
0.012708
0.012485
0.0122605
0.0120335
0.0118029
0.0115673
0.0113248
0.0110717
0.0107972
0.0104995
0.0101849
0.00984647
0.00947795
0.00907215
0.00862191
0.0081178
0.00757427
0.00751469
0.00802733
0.00899223
0.0101956
0.0115393
0.0130071
0.0145543
0.016134
0.0177098
0.0192381
0.0207071
0.0222422
0.023994
0.0261794
0.0290959
0.0327978
0.0369987
0.0411983
0.0445401
0.045579
0.0431779
0.0383415
0.0334692
0.0386336
0.0352505
0.0301721
0.0228364
0.0155807
0.0108285
0.0103337
0.0145297
0.0172031
0.0144436
0.0121374
0.0105999
0.00961406
0.00908517
0.00885199
0.00886243
0.00908436
0.00950058
0.0101159
0.0109418
0.0119738
0.0132318
0.0147568
0.0165889
0.0185387
0.0200741
0.0212016
0.0220268
0.0226161
0.0230222
0.0232858
0.023438
0.023501
0.023492
0.0234247
0.0233105
0.0231578
0.0229737
0.0227619
0.0225291
0.0222757
0.0220085
0.021732
0.0214498
0.021164
0.0208756
0.0205873
0.0202986
0.0200104
0.0197229
0.0194372
0.0191538
0.0188731
0.018595
0.0183192
0.0180456
0.0177739
0.0175041
0.0172357
0.0169684
0.0167016
0.0164348
0.0161673
0.0158982
0.0156266
0.0153512
0.0150706
0.0147825
0.014482
0.0141578
0.0138221
0.0134693
0.0130934
0.0126874
0.0122439
0.0117537
0.0112394
0.0111292
0.0115634
0.012486
0.013757
0.01527
0.0169738
0.018802
0.0206933
0.0226035
0.0244961
0.026376
0.0283616
0.030606
0.0333056
0.0366642
0.0406232
0.0447935
0.0485818
0.0512026
0.0517499
0.0497985
0.0459577
0.0418302
0.0443616
0.041409
0.037162
0.0305876
0.022961
0.0166757
0.0134557
0.0144066
0.0186805
0.0211351
0.019017
0.0167269
0.0148746
0.0136274
0.0128383
0.0124613
0.0124394
0.0127338
0.0133282
0.0142124
0.0153647
0.0167872
0.0184993
0.0205013
0.0225825
0.0242221
0.0254852
0.0264292
0.027113
0.02759
0.0279039
0.0280893
0.0281702
0.0281672
0.0280964
0.02797
0.0277975
0.027589
0.0273444
0.0270779
0.0267926
0.0264936
0.026185
0.0258697
0.0255498
0.0252264
0.0249013
0.0245755
0.0242495
0.0239237
0.023599
0.0232762
0.0229558
0.022638
0.0223228
0.02201
0.0216997
0.0213915
0.0210855
0.0207811
0.0204781
0.020176
0.0198743
0.0195722
0.0192691
0.0189641
0.018656
0.0183433
0.0180231
0.0176881
0.0173417
0.0169864
0.0166168
0.0162273
0.0158123
0.0153657
0.0149121
0.014803
0.0151988
0.0160839
0.0173763
0.0189826
0.0208359
0.0228549
0.0249684
0.0271281
0.0293062
0.0315199
0.0338765
0.0365106
0.0395629
0.0431107
0.0469705
0.050683
0.0536611
0.0553159
0.0552531
0.0535179
0.0504894
0.0471728
0.0477859
0.045349
0.0420756
0.0369224
0.0301312
0.0234423
0.018524
0.0165182
0.0178634
0.0214889
0.0241068
0.0238218
0.0216372
0.0195962
0.0179899
0.0169642
0.0164657
0.0164428
0.0168555
0.0176631
0.0188206
0.0203104
0.0221329
0.0242502
0.0263907
0.0281144
0.0294697
0.0304988
0.0312546
0.0317891
0.0321471
0.0323647
0.0324649
0.0324714
0.0324031
0.0322703
0.032086
0.0318636
0.0316064
0.0313253
0.0310246
0.0307089
0.0303819
0.0300464
0.0297045
0.0293577
0.0290076
0.0286555
0.0283023
0.0279484
0.0275949
0.0272426
0.0268922
0.0265441
0.0261985
0.0258554
0.0255149
0.0251771
0.0248418
0.0245088
0.024178
0.0238491
0.0235218
0.0231957
0.0228703
0.0225452
0.0222196
0.0218927
0.0215628
0.0212271
0.0208805
0.0205328
0.0201802
0.0198185
0.0194448
0.0190569
0.0186795
0.0186069
0.0189975
0.0198734
0.0211739
0.0228247
0.0247572
0.0268858
0.0291355
0.0314589
0.033836
0.0362893
0.0389037
0.0417708
0.0449461
0.0483713
0.0517652
0.0546698
0.0566121
0.0572736
0.0566706
0.0551028
0.0527365
0.0501415
0.0492934
0.0473735
0.045002
0.0413714
0.0361329
0.0301417
0.0247072
0.0209355
0.0195019
0.020511
0.0231563
0.0261415
0.0274657
0.0266283
0.0247047
0.0229937
0.0217849
0.0211751
0.021171
0.0217013
0.0226921
0.0240999
0.0259148
0.0280466
0.0300693
0.0317605
0.0331059
0.0341424
0.0349159
0.0354727
0.0358544
0.0360944
0.0362116
0.0362324
0.0361771
0.0360573
0.0358865
0.0356753
0.0354302
0.0351583
0.0348648
0.034554
0.0342294
0.0338939
0.0335497
0.0331986
0.0328421
0.0324818
0.0321188
0.0317539
0.031388
0.0310223
0.0306573
0.0302939
0.0299323
0.029573
0.0292161
0.0288619
0.0285103
0.0281616
0.0278158
0.0274727
0.0271324
0.0267948
0.0264599
0.0261276
0.0257978
0.0254702
0.0251442
0.0248183
0.0244877
0.0241623
0.0238401
0.0235195
0.0232003
0.0228841
0.0225954
0.0225845
0.0230019
0.0238853
0.0251818
0.0268324
0.0287729
0.0309211
0.0332059
0.0355836
0.0380391
0.04059
0.0432847
0.0461518
0.0491504
0.0521122
0.0547208
0.0566032
0.0574736
0.0572779
0.056299
0.0549188
0.0531366
0.0511805
0.0491179
0.0476912
0.0460992
0.0438154
0.0403111
0.0357499
0.0308807
0.0265926
0.0235885
0.0222475
0.0225753
0.0243524
0.0268232
0.0290025
0.0299508
0.0295721
0.028449
0.0273583
0.0268064
0.026845
0.0274298
0.02851
0.0300941
0.0318498
0.0335101
0.0349487
0.0360955
0.0369982
0.0376921
0.0382087
0.0385772
0.0388212
0.038962
0.0390172
0.0390016
0.0389269
0.038803
0.038638
0.0384387
0.038211
0.0379594
0.037688
0.0374
0.0370983
0.036785
0.0364621
0.0361313
0.035794
0.0354516
0.0351051
0.0347556
0.0344042
0.0340519
0.0336993
0.0333473
0.0329963
0.0326469
0.0322994
0.0319543
0.031612
0.0312726
0.0309367
0.0306044
0.0302761
0.0299523
0.0296334
0.0293199
0.0290123
0.028711
0.0284155
0.0281231
0.0278403
0.0275678
0.0273067
0.0270594
0.0268308
0.0266455
0.0267164
0.0271843
0.028072
0.0293371
0.0309299
0.0327915
0.034848
0.0370364
0.0393184
0.0416785
0.0441197
0.046644
0.0492132
0.0517091
0.0539103
0.0555409
0.0563703
0.0563091
0.0554948
0.0543309
0.0531818
0.0519275
0.050544
0.0474045
0.0464367
0.0455019
0.0443085
0.0423618
0.0394686
0.0358808
0.0321323
0.0287933
0.026283
0.0248239
0.0245195
0.025287
0.0268626
0.0287756
0.0305247
0.0317361
0.0323224
0.0324963
0.0325951
0.032878
0.0334683
0.0343227
0.0352525
0.0361521
0.036979
0.0377075
0.0383298
0.0388467
0.0392639
0.0395903
0.0398354
0.0400086
0.0401181
0.040172
0.0401776
0.0401409
0.0400671
0.039961
0.0398266
0.0396675
0.0394868
0.039287
0.0390707
0.0388396
0.0385957
0.0383405
0.0380755
0.037802
0.0375212
0.0372343
0.0369425
0.0366467
0.036348
0.0360473
0.0357454
0.035443
0.035141
0.03484
0.0345408
0.0342439
0.0339501
0.0336603
0.0333752
0.0330958
0.0328232
0.0325586
0.0323032
0.0320584
0.0318251
0.0316038
0.0313933
0.0311988
0.0310238
0.030873
0.0307538
0.0306902
0.0308583
0.0313805
0.0322466
0.0334281
0.0348806
0.03655
0.0383732
0.0402979
0.0422901
0.0443308
0.0464036
0.0484688
0.0504409
0.0521696
0.0534486
0.0540947
0.0540251
0.0532957
0.0521352
0.0509547
0.0500595
0.0492694
0.0483922
0.0442947
0.0437346
0.0433367
0.0429774
0.0422598
0.040879
0.0388007
0.036232
0.0335133
0.0309724
0.0288532
0.0273349
0.0265207
0.026435
0.0270023
0.0280586
0.0293925
0.0308031
0.0321479
0.0333531
0.0343959
0.0352818
0.0357398
0.0359836
0.0362469
0.0365439
0.0368578
0.0371761
0.0374881
0.0377838
0.0380562
0.0383008
0.038515
0.0386976
0.0388485
0.0389688
0.0390597
0.0391226
0.0391592
0.0391712
0.0391603
0.039128
0.0390759
0.0390056
0.0389182
0.0388152
0.0386978
0.0385672
0.0384246
0.0382711
0.0381078
0.0379359
0.0377564
0.0375704
0.0373791
0.0371833
0.0369843
0.0367829
0.0365801
0.0363772
0.036175
0.0359749
0.0357779
0.0355855
0.0353992
0.0352207
0.0350519
0.0348947
0.0347514
0.0346239
0.0345135
0.0344183
0.0343419
0.03429
0.034269
0.0342878
0.0343684
0.0346426
0.0351927
0.0359895
0.0370087
0.0382115
0.0395509
0.0409779
0.0424527
0.0439475
0.0454403
0.0469021
0.0482714
0.0494517
0.0503104
0.0507019
0.0505435
0.049857
0.0487657
0.0475031
0.0464229
0.0457658
0.0453488
0.0448908
0.040014
0.039781
0.0397859
0.0400145
0.0401664
0.0399416
0.0391996
0.037954
0.036338
0.0345347
0.0327176
0.0310404
0.0296291
0.028578
0.0279432
0.0277279
0.0278851
0.0283313
0.0289627
0.0296705
0.030345
0.0309085
0.0313426
0.031634
0.0319181
0.0322117
0.03251
0.0328105
0.0331119
0.0334114
0.0337062
0.0339934
0.0342706
0.0345355
0.0347865
0.0350223
0.0352421
0.0354451
0.0356311
0.0358001
0.035952
0.0360872
0.0362059
0.0363086
0.0363958
0.0364679
0.0365257
0.0365699
0.036601
0.0366199
0.0366275
0.0366245
0.0366119
0.0365907
0.0365618
0.0365263
0.0364851
0.0364396
0.0363908
0.0363399
0.0362884
0.0362376
0.0361891
0.0361447
0.0361063
0.0360761
0.0360565
0.03605
0.0360594
0.036087
0.0361344
0.0361977
0.0362817
0.0363926
0.0365375
0.0367247
0.0369717
0.0373537
0.0378922
0.0385514
0.0393148
0.0401542
0.0410355
0.041929
0.0428119
0.0436663
0.0444746
0.0452086
0.04581
0.046203
0.0462999
0.0460226
0.0453583
0.0443732
0.0431928
0.0420067
0.041088
0.0406202
0.0404563
0.0402998
0.0349295
0.0349121
0.0351631
0.0357321
0.0364025
0.0369194
0.0371297
0.0369711
0.0364562
0.0356514
0.0346433
0.0335218
0.0323732
0.0312771
0.0303057
0.0295113
0.0289184
0.028522
0.0282903
0.0281723
0.028107
0.0280402
0.027994
0.0279839
0.0280111
0.0280784
0.0281809
0.0283128
0.0284695
0.0286463
0.0288392
0.0290442
0.0292581
0.0294779
0.0297011
0.0299256
0.0301495
0.0303715
0.0305902
0.0308047
0.0310142
0.031218
0.0314156
0.0316067
0.031791
0.0319683
0.0321385
0.0323018
0.0324581
0.0326077
0.0327509
0.0328879
0.0330192
0.0331453
0.0332668
0.0333843
0.0334987
0.0336108
0.0337215
0.0338319
0.0339433
0.034057
0.0341746
0.0342977
0.0344283
0.0345686
0.0347211
0.0348883
0.0350727
0.035276
0.0354959
0.0357343
0.0359963
0.0362872
0.0366127
0.036979
0.0373956
0.0378706
0.0383572
0.0388307
0.0392881
0.039719
0.0401092
0.0404528
0.0407469
0.0409873
0.0411671
0.041269
0.0412528
0.041073
0.0406844
0.0400552
0.0392018
0.0381901
0.0371157
0.0361119
0.0353741
0.0350382
0.0350043
0.0350156
0.0295162
0.0295954
0.0299317
0.0306036
0.0314665
0.032325
0.0330497
0.0335648
0.033835
0.033865
0.0336837
0.0333272
0.0328354
0.0322497
0.0316138
0.0309702
0.030355
0.0297936
0.0292982
0.0288676
0.0284931
0.0281634
0.0278717
0.0276137
0.0273858
0.0271908
0.0270283
0.0268964
0.0267928
0.0267153
0.0266616
0.0266293
0.0266163
0.0266205
0.0266399
0.0266729
0.026718
0.0267736
0.0268388
0.0269123
0.0269932
0.0270808
0.0271744
0.0272733
0.0273772
0.0274854
0.0275978
0.0277141
0.027834
0.0279574
0.0280843
0.0282147
0.0283487
0.0284864
0.028628
0.028774
0.0289246
0.0290804
0.029242
0.02941
0.0295855
0.0297692
0.0299625
0.0301665
0.0303828
0.030613
0.0308589
0.0311223
0.0314046
0.0317031
0.0320209
0.0323644
0.0327367
0.0331412
0.0335814
0.0340601
0.0345772
0.0350814
0.0354931
0.0358059
0.0360265
0.0361594
0.0362075
0.0361829
0.0360971
0.035957
0.0357656
0.0355172
0.0351901
0.0347619
0.0342132
0.033533
0.0327406
0.0318831
0.0310227
0.0302455
0.0296851
0.0294385
0.0294443
0.0295112
0.0241877
0.0242751
0.0245763
0.0251723
0.0259748
0.0268487
0.0277011
0.0284692
0.0291099
0.0296062
0.029961
0.0301829
0.0302834
0.0302761
0.0301744
0.0299944
0.0297547
0.0294745
0.0291716
0.028861
0.0285541
0.0282577
0.0279659
0.0276607
0.0273678
0.0270917
0.0268332
0.0265925
0.0263691
0.0261628
0.025973
0.025799
0.02564
0.0254952
0.0253639
0.0252452
0.0251385
0.025043
0.0249581
0.0248832
0.0248178
0.0247613
0.0247135
0.0246739
0.0246423
0.0246183
0.0246018
0.0245927
0.0245908
0.0245962
0.0246087
0.0246285
0.0246557
0.0246905
0.024733
0.0247835
0.0248423
0.02491
0.0249868
0.0250735
0.0251705
0.0252787
0.0253988
0.0255318
0.0256786
0.0258403
0.0260181
0.0262126
0.0264224
0.0266513
0.0269047
0.0271851
0.0274945
0.0278353
0.0282097
0.028619
0.0290584
0.0294534
0.029756
0.0299652
0.0300832
0.0301137
0.0300613
0.0299387
0.0297589
0.0295314
0.0292628
0.0289545
0.0285971
0.0281814
0.0276995
0.0271477
0.0265392
0.0259029
0.0252768
0.024715
0.0243061
0.0241168
0.0241128
0.0241677
0.0193682
0.0194525
0.0197084
0.0202024
0.0208736
0.0216273
0.0224012
0.0231522
0.0238464
0.0244666
0.02501
0.0254766
0.0258684
0.0261875
0.0264326
0.0266027
0.0266994
0.0267264
0.02669
0.0265995
0.0264642
0.0262911
0.0260826
0.0258398
0.0255996
0.0253666
0.0251418
0.0249253
0.0247174
0.024518
0.0243271
0.0241447
0.0239705
0.0238044
0.0236461
0.0234952
0.0233517
0.0232151
0.0230853
0.0229621
0.0228451
0.0227342
0.0226293
0.0225302
0.0224367
0.0223488
0.0222665
0.0221896
0.0221182
0.0220522
0.0219919
0.0219372
0.0218882
0.0218452
0.0218083
0.0217777
0.0217537
0.0217365
0.0217267
0.0217244
0.0217301
0.0217444
0.0217678
0.0218008
0.021844
0.0218982
0.0219639
0.0220407
0.0221309
0.0222375
0.0223622
0.0225064
0.0226718
0.0228601
0.0230731
0.0233117
0.0235715
0.0237869
0.0239384
0.0240272
0.0240534
0.0240184
0.0239253
0.0237825
0.0235991
0.0233822
0.0231376
0.0228678
0.0225685
0.0222355
0.0218648
0.0214546
0.0210129
0.0205578
0.0201133
0.0197153
0.0194248
0.0192893
0.0192893
0.0193403
0.0154333
0.0155169
0.0157398
0.0161548
0.0167132
0.0173427
0.0179986
0.0186512
0.0192766
0.0198623
0.0204066
0.0209092
0.0213703
0.0217896
0.0221615
0.0224788
0.0227353
0.022925
0.0230445
0.0230954
0.0230802
0.0230013
0.0228624
0.0226827
0.0225017
0.022324
0.0221504
0.0219808
0.0218155
0.0216546
0.0214981
0.021346
0.0211983
0.021055
0.020916
0.0207811
0.0206504
0.0205238
0.020401
0.0202822
0.020167
0.0200556
0.0199478
0.0198436
0.019743
0.0196459
0.0195523
0.0194622
0.0193757
0.0192929
0.0192137
0.0191382
0.0190666
0.018999
0.0189355
0.0188763
0.0188215
0.0187714
0.0187261
0.0186861
0.0186514
0.0186225
0.0185996
0.0185832
0.0185736
0.0185713
0.0185768
0.0185897
0.0186127
0.0186467
0.0186926
0.0187512
0.0188238
0.0189113
0.0190149
0.0191351
0.0192683
0.0193622
0.0194062
0.0194033
0.019355
0.0192636
0.0191322
0.0189675
0.0187768
0.0185655
0.0183382
0.0180971
0.0178397
0.0175635
0.0172657
0.016945
0.0166068
0.0162635
0.015932
0.015638
0.0154265
0.0153327
0.0153429
0.0153967
0.0124109
0.0124816
0.0126609
0.0129915
0.0134372
0.0139428
0.0144747
0.0150108
0.0155334
0.0160334
0.0165102
0.016964
0.0173953
0.0178038
0.0181837
0.0185269
0.0188248
0.0190681
0.0192489
0.0193639
0.0194113
0.0193899
0.0193025
0.0191755
0.0190454
0.0189163
0.0187888
0.0186628
0.0185386
0.0184163
0.0182959
0.0181776
0.0180614
0.0179473
0.0178353
0.0177256
0.017618
0.0175126
0.0174094
0.0173084
0.0172096
0.017113
0.0170185
0.0169263
0.0168363
0.0167485
0.016663
0.0165798
0.016499
0.0164206
0.0163446
0.0162712
0.0162004
0.0161324
0.0160672
0.0160049
0.0159457
0.0158898
0.0158372
0.0157883
0.0157431
0.0157018
0.0156648
0.0156322
0.0156043
0.0155814
0.0155634
0.0155515
0.0155467
0.0155494
0.0155601
0.0155795
0.0156082
0.0156467
0.0156958
0.0157557
0.0158234
0.0158567
0.0158488
0.0158028
0.0157212
0.0156071
0.0154638
0.0152974
0.0151137
0.0149175
0.0147126
0.0145009
0.0142807
0.0140503
0.0138079
0.0135522
0.0132873
0.0130223
0.0127694
0.0125474
0.0123896
0.0123215
0.0123321
0.0123774
0.0100888
0.0101462
0.0102866
0.0105434
0.0108897
0.0112842
0.0117017
0.0121259
0.0125433
0.0129472
0.0133375
0.0137147
0.0140796
0.0144321
0.0147676
0.0150787
0.0153572
0.0155936
0.0157788
0.0159077
0.0159763
0.0159818
0.0159255
0.015835
0.0157412
0.0156474
0.0155538
0.0154607
0.015368
0.015276
0.0151846
0.015094
0.0150043
0.0149155
0.0148276
0.0147408
0.0146551
0.0145704
0.0144869
0.0144047
0.0143236
0.0142438
0.0141653
0.0140881
0.0140123
0.0139379
0.013865
0.0137936
0.0137238
0.0136556
0.0135891
0.0135244
0.0134615
0.0134005
0.0133416
0.0132847
0.0132301
0.0131777
0.0131278
0.0130805
0.0130358
0.012994
0.0129552
0.0129196
0.0128874
0.0128587
0.0128334
0.012813
0.0127978
0.0127881
0.0127844
0.0127868
0.0127958
0.0128118
0.0128352
0.0128661
0.0129019
0.0129074
0.0128784
0.0128184
0.0127303
0.0126173
0.0124827
0.0123319
0.0121701
0.0120011
0.0118282
0.011653
0.0114744
0.0112913
0.0111025
0.0109071
0.0107083
0.0105127
0.0103287
0.0101694
0.0100577
0.010011
0.0100219
0.0100598
0.00838346
0.00842772
0.00853224
0.00872232
0.00897956
0.00927414
0.00958808
0.0099093
0.0102277
0.0105382
0.0108409
0.0111361
0.0114247
0.0117067
0.0119785
0.0122342
0.0124669
0.0126679
0.0128289
0.0129447
0.0130107
0.0130235
0.0129838
0.0129169
0.0128471
0.0127769
0.0127066
0.0126361
0.0125655
0.012495
0.0124246
0.0123543
0.0122842
0.0122145
0.0121451
0.0120761
0.0120076
0.0119396
0.0118722
0.0118054
0.0117393
0.0116739
0.0116093
0.0115455
0.0114826
0.0114206
0.0113595
0.0112995
0.0112406
0.0111827
0.0111261
0.0110707
0.0110167
0.010964
0.0109127
0.010863
0.0108149
0.0107685
0.0107238
0.0106811
0.0106403
0.0106015
0.010565
0.0105308
0.0104991
0.0104699
0.0104434
0.0104207
0.010402
0.0103875
0.0103776
0.0103723
0.010372
0.0103769
0.0103872
0.0104031
0.0104225
0.0104158
0.0103818
0.0103241
0.0102455
0.010149
0.0100378
0.00991635
0.0097889
0.00965867
0.00952817
0.00939876
0.0092698
0.0091406
0.00901054
0.00887931
0.00874909
0.0086241
0.00850937
0.00841223
0.00834551
0.00831864
0.00832956
0.0083598
0.00731539
0.00734391
0.00741034
0.00753258
0.00770115
0.0078979
0.00811124
0.00833288
0.00855544
0.008775
0.00899121
0.00920423
0.00941445
0.00962197
0.00982398
0.0100158
0.010192
0.0103455
0.0104694
0.0105587
0.0106096
0.0106185
0.0105862
0.0105342
0.0104801
0.0104255
0.0103706
0.0103153
0.0102598
0.010204
0.0101481
0.0100921
0.0100361
0.00998014
0.00992422
0.00986845
0.00981286
0.00975752
0.00970248
0.00964778
0.00959348
0.00953963
0.00948628
0.00943347
0.00938126
0.00932968
0.00927879
0.00922863
0.00917926
0.00913072
0.00908305
0.00903631
0.00899055
0.00894581
0.00890216
0.00885963
0.00881829
0.00877819
0.00873939
0.00870195
0.00866595
0.00863144
0.00859851
0.00856722
0.00853768
0.00850986
0.00848438
0.00846193
0.00844265
0.00842668
0.00841419
0.00840532
0.00840025
0.00839914
0.00840218
0.00840945
0.00841941
0.00840851
0.00837876
0.00833397
0.00827653
0.00820901
0.00813397
0.00805483
0.00797457
0.00789539
0.00781894
0.00774609
0.00767656
0.00761013
0.00754662
0.00748607
0.00742958
0.00737885
0.00733538
0.00730092
0.00727847
0.00726985
0.00727896
0.0072994
0.00693296
0.00694128
0.00696471
0.0070141
0.00708958
0.00718497
0.00729508
0.00741523
0.00754054
0.00766793
0.00779657
0.00792605
0.00805629
0.00818708
0.00831629
0.00844045
0.00855535
0.00865568
0.00873592
0.00879218
0.00882101
0.00881965
0.00878942
0.00874694
0.0087032
0.00865907
0.00861461
0.00856986
0.00852487
0.0084797
0.0084344
0.00838901
0.00834359
0.0082982
0.00825288
0.0082077
0.0081627
0.00811794
0.00807346
0.00802933
0.00798558
0.00794227
0.00789944
0.00785713
0.00781538
0.00777424
0.00773373
0.0076939
0.00765477
0.00761638
0.00757876
0.00754192
0.00750591
0.00747073
0.00743642
0.00740299
0.00737047
0.00733887
0.0073082
0.00727849
0.00724976
0.00722202
0.0071953
0.00716962
0.00714502
0.00712144
0.00710012
0.00708114
0.00706456
0.00705047
0.00703894
0.00703007
0.00702395
0.00702067
0.00702033
0.00702301
0.00702767
0.00701836
0.00700013
0.00697764
0.00695236
0.0069258
0.00689948
0.00687499
0.00685357
0.00683603
0.00682285
0.00681419
0.00681006
0.00681049
0.00681555
0.00682536
0.00683974
0.00685787
0.00687815
0.00689783
0.00691219
0.00691747
0.00692169
0.00692864
0.00717674
0.00715964
0.00713845
0.00711768
0.00710512
0.00710468
0.00711669
0.00713977
0.00717149
0.00720966
0.00725305
0.00730083
0.00735245
0.00740741
0.00746418
0.00752042
0.0075732
0.00761882
0.00765339
0.00767398
0.00767803
0.00766355
0.00763282
0.00759692
0.00756063
0.00752435
0.0074881
0.00745195
0.00741594
0.00738014
0.00734461
0.0073094
0.00727457
0.00724018
0.0072063
0.00717296
0.00714024
0.00710817
0.00707681
0.0070462
0.00701637
0.00698736
0.0069592
0.00693192
0.00690552
0.00688003
0.00685545
0.00683178
0.00680902
0.00678716
0.00676618
0.00674608
0.00672681
0.00670836
0.00669069
0.00667377
0.00665756
0.006642
0.00662706
0.00661268
0.00659881
0.0065854
0.00657239
0.00655975
0.00654754
0.00653644
0.00652673
0.00651838
0.00651133
0.00650555
0.00650101
0.0064977
0.0064956
0.00649475
0.00649517
0.00649692
0.00649947
0.00649697
0.00649543
0.00650049
0.00651208
0.00653011
0.00655444
0.00658444
0.00661932
0.00665836
0.00670082
0.00674617
0.00679449
0.00684584
0.00690026
0.00695767
0.00701679
0.00707515
0.00712947
0.00717499
0.00720384
0.00721052
0.00720294
0.00719048
0.00778489
0.00774074
0.0076833
0.00761253
0.00753852
0.0074699
0.00741007
0.00735992
0.00731906
0.00728636
0.00726067
0.00724107
0.00722688
0.00721754
0.00721218
0.00720952
0.00720791
0.00720528
0.00719935
0.00718832
0.00717064
0.00714525
0.00711549
0.00708673
0.00705893
0.00703215
0.00700645
0.0069819
0.00695859
0.00693658
0.00691596
0.00689678
0.00687911
0.00686299
0.00684848
0.00683559
0.00682437
0.00681481
0.00680693
0.00680071
0.00679614
0.00679319
0.00679182
0.00679199
0.00679363
0.00679669
0.00680108
0.00680673
0.00681354
0.00682141
0.00683024
0.00683992
0.00685031
0.00686131
0.00687279
0.00688461
0.00689666
0.0069088
0.00692089
0.0069328
0.00694439
0.00695553
0.00696613
0.00697621
0.00698666
0.00699677
0.00700632
0.00701511
0.00702294
0.00702965
0.00703512
0.00703926
0.00704202
0.00704342
0.0070435
0.00704239
0.00704025
0.00704241
0.00705231
0.00707411
0.00710642
0.00714779
0.00719679
0.00725122
0.00730903
0.0073686
0.00742852
0.00748789
0.00754673
0.00760501
0.0076626
0.00771921
0.00777325
0.00782208
0.00786268
0.00789115
0.00790136
0.00788969
0.00786029
0.00782263
0.00840807
0.00834563
0.00827225
0.00818538
0.00809188
0.007999
0.00791024
0.0078273
0.00775105
0.00768143
0.0076178
0.00755965
0.00750654
0.00745813
0.00741422
0.00737453
0.00733859
0.00730581
0.0072755
0.00724704
0.00722004
0.00719462
0.00717528
0.0071628
0.00715359
0.00714752
0.0071446
0.00714489
0.00714843
0.00715524
0.00716532
0.00717866
0.0071952
0.00721487
0.00723757
0.0072632
0.0072916
0.00732263
0.00735612
0.00739188
0.00742972
0.00746943
0.0075108
0.00755362
0.00759766
0.00764271
0.00768852
0.00773489
0.00778158
0.00782836
0.00787501
0.00792131
0.00796702
0.00801193
0.00805583
0.00809853
0.00813987
0.00817966
0.00821773
0.00825393
0.0082881
0.00832027
0.00835071
0.00837978
0.00840545
0.00842747
0.00844559
0.00845963
0.00846947
0.00847505
0.00847636
0.00847348
0.00846652
0.00845567
0.0084412
0.00842347
0.00840326
0.00839302
0.00839364
0.00840351
0.00842113
0.00844498
0.00847346
0.00850439
0.0085358
0.00856615
0.00859417
0.00861904
0.00864065
0.00865883
0.0086733
0.00868366
0.00868867
0.00868668
0.00867618
0.00865584
0.00862406
0.00858097
0.00852668
0.00846651
0.00881283
0.00875573
0.00869714
0.00863286
0.00856336
0.00849112
0.00841788
0.00834521
0.00827468
0.00820719
0.00814301
0.00808233
0.0080253
0.00797203
0.00792297
0.00787869
0.00783978
0.00780693
0.00778094
0.00776249
0.00775251
0.00775293
0.00776881
0.00779738
0.00783209
0.00787239
0.00791808
0.00796891
0.00802464
0.00808494
0.00814946
0.00821778
0.00828948
0.0083641
0.00844117
0.00852023
0.00860079
0.00868241
0.00876464
0.00884707
0.00892929
0.00901094
0.00909165
0.00917113
0.00924905
0.00932515
0.00939918
0.00947091
0.00954013
0.00960663
0.00967024
0.00973079
0.00978813
0.00984212
0.00989264
0.00993966
0.00998313
0.010023
0.0100593
0.0100921
0.0101215
0.0101475
0.010169
0.0101841
0.0101929
0.0101955
0.010192
0.0101825
0.0101672
0.0101464
0.0101203
0.0100894
0.0100539
0.0100143
0.009971
0.00992457
0.00987597
0.00983698
0.00980945
0.00978472
0.00976277
0.00974281
0.00972383
0.00970444
0.00968335
0.00965951
0.00963203
0.00960032
0.00956406
0.00952287
0.00947634
0.00942391
0.00936498
0.0092993
0.00922744
0.00915146
0.00907571
0.00900512
0.00893801
0.00887269
0.00892886
0.00892207
0.00892428
0.00892812
0.00892649
0.00891666
0.00889906
0.00887577
0.00884956
0.00882277
0.008797
0.00877346
0.00875302
0.00873633
0.00872438
0.00871842
0.00871992
0.00873075
0.00875306
0.00878879
0.00884004
0.00891103
0.00899906
0.00910099
0.00920864
0.00932069
0.00943618
0.00955414
0.00967361
0.00979363
0.00991328
0.0100317
0.0101481
0.0102617
0.0103721
0.0104786
0.0105809
0.0106786
0.0107717
0.0108598
0.0109429
0.011021
0.0110941
0.0111621
0.0112252
0.0112834
0.0113367
0.0113854
0.0114294
0.0114688
0.0115037
0.0115343
0.0115606
0.0115827
0.0116007
0.0116149
0.0116254
0.0116326
0.0116365
0.0116362
0.0116307
0.0116181
0.0115988
0.0115731
0.0115414
0.0115042
0.0114619
0.0114149
0.0113636
0.0113086
0.0112501
0.0111885
0.0111244
0.0110582
0.0109902
0.010921
0.0108514
0.0107873
0.0107304
0.010673
0.0106145
0.0105544
0.0104919
0.010426
0.0103558
0.0102808
0.0102004
0.0101145
0.0100227
0.00992449
0.00981935
0.00970666
0.00958656
0.00946064
0.00933229
0.00920828
0.00910155
0.00902456
0.0089789
0.0089476
0.00862419
0.00874079
0.00887097
0.00900281
0.00912154
0.00922146
0.00930493
0.00937718
0.0094436
0.00950865
0.00957529
0.0096453
0.00971963
0.0097987
0.0098832
0.00997433
0.0100738
0.0101839
0.0103074
0.0104464
0.0106025
0.010771
0.0109395
0.0111046
0.0112642
0.0114168
0.0115607
0.0116948
0.0118182
0.0119305
0.0120315
0.0121211
0.0121997
0.0122678
0.0123259
0.0123748
0.0124151
0.0124478
0.0124735
0.0124928
0.0125065
0.0125152
0.0125193
0.0125194
0.0125158
0.0125088
0.0124988
0.0124859
0.0124705
0.0124527
0.0124327
0.0124106
0.0123866
0.0123609
0.0123338
0.0123059
0.0122771
0.012244
0.0122053
0.0121605
0.01211
0.0120545
0.0119949
0.011932
0.0118662
0.0117982
0.0117285
0.0116576
0.0115858
0.0115135
0.0114411
0.0113689
0.0112971
0.0112261
0.0111563
0.0110881
0.0110217
0.0109563
0.0108918
0.0108256
0.0107527
0.0106718
0.0105812
0.0104802
0.0103687
0.0102472
0.0101165
0.00997757
0.00983032
0.00967437
0.00950902
0.00933333
0.00914839
0.00895854
0.00877141
0.00860114
0.00847577
0.00842412
0.00844579
0.0085239
0.00588454
0.00606691
0.00631496
0.00661717
0.00694177
0.00726811
0.00759277
0.00791659
0.00824003
0.00856393
0.00888871
0.0092133
0.00953599
0.00985486
0.0101681
0.0104748
0.0107748
0.0110688
0.0113574
0.0116401
0.0119147
0.0121641
0.0123576
0.0124916
0.0125897
0.0126539
0.0126856
0.0126881
0.0126649
0.01262
0.0125572
0.0124801
0.0123921
0.012296
0.0121945
0.0120897
0.0119835
0.0118772
0.0117721
0.0116688
0.0115681