/*--------------------------------*- C++ -*----------------------------------*\
| =========                 |                                                 |
| \\      /  F ield         | OpenFOAM: The Open Source CFD Toolbox           |
|  \\    /   O peration     | Version:  v1912                                 |
|   \\  /    A nd           | Website:  www.openfoam.com                      |
|    \\/     M anipulation  |                                                 |
\*---------------------------------------------------------------------------*/
FoamFile
{
    version     2.0;
    format      ascii;
    class       volScalarField;
    location    "10000";
    object      nut;
}
// * * * * * * * * * * * * * * * * * * * * * * * * * * * * * * * * * * * * * //

dimensions      [0 2 -1 0 0 0 0];


internalField   nonuniform List<scalar> 
3000
(
3.54659e-05
2.67634e-05
1.81241e-05
4.03681e-06
3.08921e-06
3.28479e-06
2.40579e-06
2.02247e-06
1.69025e-06
1.42688e-06
1.33655e-06
1.41201e-06
1.60937e-06
1.85874e-06
2.12103e-06
2.38619e-06
2.64186e-06
2.90719e-06
3.22656e-06
3.61517e-06
4.13097e-06
5.02388e-06
6.79294e-06
9.4586e-06
1.18977e-05
1.33152e-05
1.40349e-05
1.43154e-05
1.4168e-05
1.37272e-05
1.31068e-05
1.23838e-05
1.16078e-05
1.08115e-05
1.00192e-05
9.24906e-06
8.5108e-06
7.80823e-06
7.14887e-06
6.53361e-06
5.96107e-06
5.43278e-06
4.94637e-06
4.50037e-06
4.09032e-06
3.71812e-06
3.3797e-06
3.06593e-06
2.78719e-06
2.53454e-06
2.30984e-06
2.10968e-06
1.93197e-06
1.83638e-06
1.85649e-06
1.8747e-06
1.88906e-06
1.89863e-06
1.90257e-06
1.89996e-06
1.88983e-06
1.87109e-06
1.84247e-06
1.80266e-06
1.75044e-06
1.68564e-06
1.61206e-06
1.52815e-06
1.43297e-06
1.32089e-06
1.18899e-06
1.03779e-06
8.71078e-07
6.96192e-07
5.20939e-07
4.05905e-07
4.37527e-07
5.59529e-07
7.44077e-07
9.48077e-07
1.06466e-06
1.27991e-06
1.74838e-06
2.32686e-06
3.01045e-06
3.81372e-06
4.67738e-06
5.45734e-06
6.26596e-06
7.21012e-06
8.5087e-06
1.08692e-05
1.52196e-05
2.27107e-05
3.51337e-05
5.40924e-05
7.58306e-05
8.69756e-05
7.67172e-05
5.39312e-05
0.000187976
0.000161652
9.9654e-05
4.14122e-05
1.99164e-05
1.76178e-05
2.29282e-05
2.33306e-05
1.92182e-05
1.465e-05
1.27819e-05
1.27118e-05
1.40741e-05
1.69835e-05
2.12334e-05
2.70585e-05
3.45961e-05
4.34833e-05
5.331e-05
6.41266e-05
7.51006e-05
8.70492e-05
0.000103585
0.000135861
0.000198382
0.000257683
0.00030771
0.000334169
0.00035096
0.000361948
0.000368719
0.000372368
0.000373613
0.000372935
0.000370751
0.000367453
0.000363272
0.000358288
0.000352764
0.000346811
0.000340441
0.000333814
0.000326943
0.00031993
0.000312642
0.000305297
0.000298197
0.000290553
0.00028294
0.000275617
0.000268544
0.000261681
0.000255007
0.000248416
0.000241907
0.000235503
0.000229186
0.000222924
0.000216687
0.000210444
0.000204159
0.000197793
0.0001913
0.000184625
0.000177709
0.000170471
0.000162312
0.00015305
0.000143731
0.00013385
0.000123224
0.00011188
9.99391e-05
8.75974e-05
7.48358e-05
6.2755e-05
4.90911e-05
5.26844e-05
7.65138e-05
0.000108952
0.000135322
0.000154926
0.000171481
0.000185015
0.000195918
0.000204857
0.00021067
0.000211732
0.000212486
0.000215501
0.000224744
0.000249535
0.000294809
0.000361895
0.000453139
0.000554881
0.000587859
0.000435942
0.000291477
0.000211173
0.000968524
0.000820953
0.000506819
0.000224831
0.000112968
0.000123512
0.000318988
0.000380921
0.000349835
0.000291532
0.000255265
0.000235627
0.000241731
0.00027156
0.000316175
0.000373143
0.000439588
0.000509103
0.000578715
0.000651109
0.000722371
0.000800381
0.000911061
0.00112853
0.00152029
0.00184461
0.00203622
0.00214663
0.00222139
0.00227258
0.00230652
0.00232754
0.00233843
0.00234111
0.00233717
0.00232812
0.00231489
0.00229785
0.00227789
0.00225553
0.00223085
0.00220447
0.00217629
0.00214705
0.00211608
0.00208402
0.00205239
0.00201978
0.00198665
0.00195368
0.001921
0.0018886
0.00185645
0.00182434
0.00179212
0.00175994
0.00172781
0.00169566
0.00166343
0.00163101
0.00159828
0.0015651
0.00153131
0.00149667
0.00146094
0.00142376
0.00138391
0.00133859
0.00128242
0.00122097
0.00115304
0.00107815
0.000996264
0.000907637
0.000812434
0.000713623
0.000604438
0.000635121
0.000780346
0.000961951
0.00112214
0.00124854
0.00135259
0.00143796
0.00150715
0.0015626
0.00160015
0.00161393
0.00162045
0.00163322
0.00167215
0.0017771
0.00196916
0.00224766
0.0026067
0.00297593
0.00305869
0.0023877
0.00154294
0.0010918
0.00294086
0.00250111
0.00162474
0.000759047
0.000369203
0.00027024
0.000493315
0.00123219
0.00146903
0.00139782
0.00127685
0.00119353
0.00117749
0.00123468
0.00133106
0.00145492
0.00159737
0.00174795
0.00190667
0.00208226
0.00227204
0.00249383
0.002797
0.00329854
0.0040229
0.00456204
0.00487554
0.00508188
0.00522661
0.00532836
0.00539834
0.00544424
0.00547113
0.00548251
0.0054813
0.00547016
0.00545078
0.00542406
0.00539134
0.0053537
0.00531128
0.00526527
0.00521532
0.00516287
0.00510853
0.0050522
0.0049951
0.00493689
0.00487721
0.00481688
0.00475629
0.00469557
0.00463475
0.00457365
0.0045121
0.00445018
0.00438788
0.00432513
0.00426181
0.00419774
0.0041327
0.00406642
0.00399858
0.00392874
0.0038564
0.00378084
0.00370062
0.00361283
0.00350834
0.00338483
0.00324672
0.00309159
0.00291759
0.00272323
0.00250759
0.0022714
0.00201805
0.00202355
0.00225699
0.00260145
0.00295919
0.00328497
0.00357784
0.00383428
0.00405272
0.00423403
0.00437018
0.00445341
0.00451574
0.00458943
0.0047207
0.00498794
0.00542795
0.00602183
0.00671955
0.00734576
0.00739063
0.00623814
0.00446656
0.00333245
0.00622381
0.00537085
0.00376265
0.00192212
0.000947131
0.000585554
0.000603069
0.00112234
0.00231281
0.00276113
0.00284557
0.00283093
0.00281181
0.00287434
0.00298569
0.00313975
0.00332913
0.00354672
0.00379736
0.00409254
0.00443139
0.00483439
0.00535444
0.00609147
0.00699348
0.00763593
0.00805288
0.00834714
0.00856143
0.00871817
0.00883182
0.00891246
0.00896658
0.00899896
0.00901353
0.00901375
0.0090017
0.008979
0.008947
0.0089074
0.00886029
0.00880738
0.00874987
0.00868849
0.00862387
0.00855602
0.00848574
0.00841329
0.00833842
0.0082617
0.00818366
0.00810455
0.00802448
0.00794341
0.00786122
0.0077779
0.00769345
0.00760777
0.0075207
0.00743203
0.00734147
0.00724866
0.00715313
0.0070543
0.00695144
0.00684356
0.00672911
0.0066053
0.0064657
0.00629637
0.00610526
0.00588831
0.00564129
0.0053598
0.0050398
0.00467776
0.00428903
0.00421347
0.00446302
0.00490412
0.00543402
0.00597886
0.00651071
0.00700474
0.00744498
0.00782401
0.0081292
0.00835437
0.00854425
0.00875108
0.0090464
0.00953276
0.0102461
0.0111321
0.0120759
0.0128106
0.0127387
0.0112743
0.00885426
0.0070289
0.0106065
0.00932113
0.00702867
0.00401457
0.00207784
0.00122382
0.000945749
0.00111246
0.00184404
0.00320719
0.00402459
0.00450061
0.00466773
0.00482325
0.00497185
0.00515198
0.00537571
0.00564765
0.00597969
0.00638416
0.00685918
0.00741944
0.00810423
0.00897038
0.00992083
0.0105882
0.0110675
0.0114248
0.0116966
0.0119053
0.0120663
0.0121902
0.0122832
0.0123509
0.0123976
0.012427
0.0124409
0.0124416
0.0124301
0.0124085
0.0123783
0.0123408
0.012297
0.0122477
0.0121934
0.0121342
0.0120708
0.0120036
0.0119327
0.0118585
0.0117814
0.0117018
0.0116199
0.0115358
0.0114495
0.0113609
0.0112701
0.011177
0.0110814
0.0109831
0.0108819
0.0107772
0.0106687
0.0105556
0.0104372
0.0103123
0.0101794
0.0100359
0.0098768
0.00969007
0.00947276
0.00922518
0.00894091
0.00861279
0.00823342
0.00779571
0.00732133
0.00716043
0.00738071
0.00785791
0.0085006
0.0092241
0.00997776
0.010713
0.0113944
0.0120022
0.0125189
0.0129411
0.0133194
0.0137187
0.014222
0.0149294
0.0158562
0.0169088
0.0179214
0.0185951
0.0183809
0.016802
0.0141291
0.0118443
0.015682
0.0140634
0.0113074
0.00726364
0.00406414
0.0024074
0.00166772
0.00146739
0.00172825
0.00251219
0.00372771
0.00521962
0.00598119
0.00653104
0.00688538
0.00717888
0.00747689
0.00780989
0.0082068
0.00868711
0.00924822
0.00989516
0.0106473
0.0115186
0.0123858
0.0130256
0.0135167
0.0139034
0.0142136
0.0144662
0.0146744
0.0148479
0.0149903
0.0151067
0.0152019
0.0152793
0.0153392
0.0153845
0.0154167
0.0154381
0.0154496
0.0154524
0.0154473
0.0154349
0.0154156
0.0153899
0.015358
0.0153206
0.0152778
0.0152299
0.0151774
0.0151207
0.01506
0.0149956
0.0149274
0.0148556
0.0147802
0.0147011
0.0146183
0.0145316
0.0144407
0.0143454
0.0142452
0.0141395
0.0140275
0.0139082
0.0137802
0.0136414
0.013488
0.0133129
0.0131028
0.0128626
0.0125845
0.0122598
0.0118791
0.0114337
0.0109458
0.0107385
0.0109173
0.0114003
0.0121005
0.0129378
0.0138512
0.0147763
0.0156629
0.01648
0.0172069
0.0178422
0.0184336
0.0190441
0.0197468
0.020613
0.021626
0.0226676
0.02356
0.0240424
0.0237039
0.022212
0.0196413
0.0172264
0.0208914
0.0191398
0.0162514
0.0116672
0.00721439
0.00444577
0.00299543
0.00231495
0.00214054
0.00239535
0.00306005
0.00420264
0.00560968
0.00701377
0.00796845
0.00864013
0.00918399
0.00966816
0.0101517
0.0106868
0.0112793
0.0119273
0.012635
0.0133909
0.014067
0.0146196
0.0150757
0.0154603
0.0157902
0.0160771
0.0163302
0.0165577
0.0167575
0.0169336
0.0170908
0.017231
0.0173561
0.0174674
0.0175661
0.0176534
0.0177302
0.0177971
0.0178548
0.0179037
0.0179443
0.0179768
0.0180016
0.0180191
0.0180295
0.0180333
0.0180306
0.0180219
0.0180075
0.0179876
0.0179624
0.017932
0.0178966
0.0178562
0.0178109
0.0177604
0.0177049
0.0176439
0.0175774
0.0175048
0.0174256
0.0173391
0.0172442
0.0171394
0.0170221
0.0168872
0.0167232
0.0165316
0.0163056
0.0160368
0.0157158
0.0153343
0.0149119
0.0147228
0.0148884
0.0153671
0.0160808
0.0169621
0.0179504
0.0189781
0.0199894
0.0209491
0.0218359
0.0226484
0.023422
0.0242019
0.025032
0.0259395
0.0268805
0.0277394
0.028371
0.0286006
0.0281854
0.0269194
0.0247365
0.0225182
0.0255938
0.0239565
0.0213019
0.0168534
0.011653
0.00768171
0.00525486
0.00389457
0.00320623
0.00298042
0.00312346
0.00363409
0.00450179
0.00571108
0.00710082
0.00844752
0.00959884
0.0105301
0.011259
0.0119216
0.0125566
0.0131632
0.0137253
0.0142278
0.014696
0.0151359
0.0155317
0.0158956
0.0162333
0.0165483
0.0168436
0.0171213
0.0173823
0.0176276
0.0178585
0.0180759
0.0182805
0.018473
0.018654
0.0188238
0.0189831
0.0191321
0.0192712
0.0194006
0.0195207
0.0196317
0.0197338
0.0198273
0.0199123
0.0199893
0.0200584
0.02012
0.0201744
0.0202219
0.0202627
0.020297
0.020325
0.0203469
0.0203628
0.0203728
0.020377
0.0203753
0.0203678
0.0203543
0.0203346
0.0203085
0.0202752
0.0202341
0.0201837
0.0201208
0.020038
0.0199329
0.0198006
0.0196347
0.0194277
0.0191732
0.0188875
0.0187859
0.0189872
0.0194622
0.0201561
0.0210161
0.0219898
0.023017
0.0240475
0.0250487
0.0260019
0.0269029
0.027768
0.0286141
0.0294481
0.030257
0.0309866
0.0315514
0.0318664
0.031855
0.0314232
0.0304616
0.0288344
0.0270588
0.0291848
0.0278797
0.0257696
0.0220812
0.0170425
0.0122806
0.00879954
0.00655433
0.00519278
0.00442027
0.00405983
0.00403505
0.00431217
0.00488189
0.00572266
0.00679487
0.00802881
0.0093145
0.010518
0.0115616
0.0124279
0.0131104
0.0135214
0.0138189
0.0141306
0.0144657
0.0148116
0.0151614
0.0155105
0.015856
0.016196
0.0165291
0.0168544
0.0171709
0.0174782
0.0177761
0.0180643
0.0183426
0.018611
0.0188696
0.0191182
0.019357
0.019586
0.0198053
0.020015
0.0202151
0.0204059
0.0205874
0.0207598
0.0209234
0.0210783
0.0212248
0.0213632
0.0214937
0.0216167
0.0217324
0.021841
0.0219429
0.0220383
0.0221275
0.0222106
0.022288
0.0223599
0.0224265
0.0224879
0.0225445
0.0225961
0.0226429
0.0226843
0.0227194
0.0227451
0.0227545
0.0227464
0.0227171
0.022662
0.0225776
0.0224771
0.0225152
0.0227888
0.0232638
0.0239118
0.0246954
0.0255743
0.0265032
0.0274446
0.0283738
0.0292754
0.0301412
0.0309671
0.0317434
0.0324478
0.0330447
0.0334891
0.0337387
0.0337699
0.0335837
0.03319
0.0325533
0.0315162
0.0303022
0.0312384
0.0303848
0.0289897
0.0264358
0.0224582
0.0178543
0.0137371
0.0106193
0.00846007
0.00702159
0.00609041
0.00553637
0.00528469
0.00529572
0.00554471
0.00600834
0.00665973
0.00746378
0.00837213
0.00932374
0.0102456
0.011059
0.0116294
0.0120189
0.0123773
0.0127362
0.0131009
0.0134728
0.0138511
0.0142335
0.0146179
0.0150021
0.0153843
0.0157629
0.0161367
0.0165046
0.016866
0.0172202
0.0175666
0.017905
0.018235
0.0185564
0.018869
0.0191728
0.0194676
0.0197535
0.0200303
0.0202983
0.0205574
0.0208077
0.0210495
0.0212828
0.0215081
0.0217254
0.0219351
0.0221374
0.0223328
0.0225214
0.0227038
0.0228802
0.0230511
0.023217
0.0233782
0.0235354
0.023689
0.0238398
0.0239884
0.0241353
0.0242812
0.0244262
0.0245694
0.0247062
0.0248355
0.0249561
0.0250668
0.0251667
0.0252662
0.0254618
0.0258107
0.0262832
0.0268644
0.0275311
0.0282569
0.0290143
0.0297805
0.03054
0.0312811
0.0319923
0.0326559
0.0332469
0.0337313
0.0340716
0.0342423
0.0342382
0.0340769
0.0338027
0.0334803
0.0331251
0.0326001
0.031932
0.0316333
0.0312202
0.0305262
0.029149
0.0266882
0.0232461
0.0194548
0.0159928
0.0132041
0.0110952
0.00953731
0.00840872
0.00761806
0.00710405
0.00682896
0.00676217
0.006874
0.00713302
0.00750286
0.00794179
0.00840233
0.00884208
0.00928869
0.00972678
0.0101577
0.0105856
0.0110106
0.0114335
0.011855
0.0122752
0.0126942
0.0131116
0.0135269
0.0139398
0.0143495
0.0147555
0.0151573
0.0155544
0.0159463
0.0163326
0.0167129
0.0170868
0.0174542
0.0178148
0.0181683
0.0185147
0.0188539
0.0191858
0.0195103
0.0198276
0.0201377
0.0204406
0.0207367
0.0210259
0.0213087
0.0215853
0.0218559
0.0221209
0.0223808
0.0226359
0.0228868
0.023134
0.0233782
0.0236201
0.0238605
0.0241003
0.0243404
0.0245822
0.0248265
0.0250743
0.0253261
0.0255789
0.0258334
0.0260905
0.0263509
0.0266158
0.0268919
0.0272248
0.027629
0.0280828
0.0285802
0.0291099
0.0296582
0.030213
0.0307643
0.0313043
0.0318252
0.0323153
0.0327536
0.0331138
0.033366
0.0334828
0.0334563
0.0333014
0.0330521
0.0327637
0.0325179
0.0323583
0.0321921
0.0319462
0.0305988
0.0305062
0.0303401
0.0298955
0.0288424
0.0269898
0.0244553
0.0216164
0.018883
0.0164871
0.0144839
0.0128534
0.0115502
0.0105289
0.0097588
0.00921216
0.00886021
0.00867412
0.0086228
0.0086722
0.00878981
0.00894914
0.00916308
0.0094438
0.00974046
0.0100503
0.0103719
0.0107039
0.0110449
0.0113935
0.0117484
0.0121082
0.0124719
0.0128383
0.0132064
0.0135754
0.0139445
0.014313
0.0146803
0.0150459
0.0154094
0.0157703
0.0161283
0.0164832
0.0168346
0.0171825
0.0175265
0.0178667
0.0182029
0.0185351
0.0188633
0.0191875
0.0195077
0.0198242
0.0201369
0.0204462
0.0207523
0.0210554
0.021356
0.0216543
0.0219509
0.0222464
0.0225413
0.0228363
0.0231324
0.0234304
0.0237314
0.0240367
0.0243473
0.0246643
0.0249877
0.0253186
0.0256587
0.0260095
0.0263728
0.0267499
0.0271439
0.0275609
0.0279844
0.0284034
0.0288168
0.0292213
0.029612
0.0299868
0.0303443
0.0306821
0.030996
0.0312779
0.0315109
0.0316758
0.0317532
0.0317276
0.0316004
0.0313913
0.0311327
0.0308735
0.0306894
0.0306328
0.0306547
0.0306566
0.0286062
0.0286747
0.0287939
0.0288987
0.0287833
0.0282412
0.0271745
0.0256392
0.0238196
0.0219165
0.0200693
0.0183609
0.0168305
0.0154919
0.0143565
0.0134267
0.0126954
0.0121501
0.0117735
0.0115415
0.0114333
0.0114328
0.0115248
0.0116918
0.011872
0.0120614
0.0122597
0.0124666
0.0126815
0.0129038
0.0131327
0.0133676
0.0136078
0.0138524
0.014101
0.0143529
0.0146075
0.0148644
0.0151231
0.0153833
0.0156446
0.0159068
0.0161696
0.0164328
0.0166964
0.01696
0.0172237
0.0174874
0.0177511
0.0180147
0.0182782
0.0185418
0.0188054
0.0190691
0.0193332
0.0195977
0.0198629
0.020129
0.0203962
0.0206649
0.0209355
0.0212085
0.0214842
0.0217634
0.0220467
0.0223349
0.0226287
0.022929
0.0232368
0.0235526
0.0238785
0.024217
0.0245695
0.0249375
0.0253223
0.025725
0.0261451
0.0265651
0.0269644
0.0273388
0.0276863
0.0280049
0.0282926
0.0285508
0.0287813
0.0289846
0.0291598
0.029303
0.0294041
0.0294523
0.029437
0.0293506
0.0291971
0.0289925
0.0287615
0.0285421
0.0283966
0.0283746
0.028454
0.0285491
0.0260864
0.0261912
0.0263945
0.0267052
0.0270172
0.0271929
0.0271277
0.0267676
0.0261222
0.0252477
0.0242129
0.0230857
0.0219237
0.0207739
0.0196835
0.0186932
0.0178322
0.0171209
0.0165696
0.0161749
0.0159309
0.0158305
0.0158434
0.015911
0.0159883
0.0160709
0.016159
0.0162524
0.016351
0.0164546
0.0165629
0.0166756
0.0167923
0.0169126
0.0170363
0.017163
0.0172923
0.0174241
0.017558
0.0176938
0.0178313
0.0179703
0.0181108
0.0182526
0.0183957
0.01854
0.0186855
0.0188322
0.0189801
0.0191293
0.0192799
0.019432
0.0195856
0.019741
0.0198984
0.0200578
0.0202196
0.0203841
0.0205514
0.0207219
0.020896
0.021074
0.0212564
0.0214437
0.0216363
0.0218348
0.0220398
0.022252
0.0224721
0.0227018
0.0229429
0.0231965
0.0234638
0.0237462
0.0240449
0.0243605
0.0246918
0.0250169
0.0253279
0.0256215
0.0258922
0.0261357
0.0263484
0.0265298
0.0266808
0.0268021
0.026894
0.0269555
0.0269814
0.0269661
0.0269044
0.0267918
0.0266317
0.0264354
0.0262214
0.0260195
0.025882
0.0258524
0.0259181
0.0260127
0.0232337
0.0233346
0.0235465
0.0239028
0.024341
0.0247723
0.0251289
0.0253617
0.0254417
0.0253633
0.0251356
0.0247757
0.0243051
0.0237482
0.0231375
0.02251
0.0219035
0.0213537
0.0208904
0.0205308
0.0202854
0.020158
0.0201263
0.0201217
0.0201233
0.0201281
0.0201363
0.0201478
0.0201626
0.0201805
0.0202015
0.0202254
0.020252
0.0202812
0.0203128
0.0203465
0.0203822
0.0204198
0.0204591
0.0204999
0.0205422
0.0205858
0.0206307
0.0206768
0.0207241
0.0207726
0.0208222
0.020873
0.020925
0.0209784
0.0210331
0.0210893
0.021147
0.0212065
0.0212679
0.0213313
0.021397
0.0214652
0.0215361
0.0216099
0.021687
0.0217678
0.0218524
0.0219413
0.0220349
0.0221335
0.0222376
0.0223476
0.0224635
0.0225863
0.0227169
0.0228561
0.0230051
0.0231648
0.0233363
0.0235205
0.023717
0.0239102
0.0240909
0.024255
0.0243982
0.0245171
0.0246086
0.0246725
0.0247098
0.0247211
0.0247076
0.0246689
0.0246019
0.0245028
0.0243676
0.024193
0.0239813
0.0237425
0.023493
0.0232612
0.0230982
0.0230469
0.0230912
0.0231699
0.020023
0.0201276
0.0203537
0.0207405
0.0212328
0.0217567
0.0222642
0.0227219
0.0231054
0.0234026
0.0236106
0.0237301
0.0237637
0.0237165
0.0235975
0.0234212
0.0232072
0.0229793
0.0227615
0.0225734
0.0224298
0.0223391
0.0222919
0.0222453
0.0222008
0.022158
0.022117
0.0220779
0.0220406
0.0220051
0.0219714
0.0219395
0.0219093
0.0218807
0.0218537
0.0218281
0.021804
0.0217813
0.0217598
0.0217397
0.0217207
0.0217029
0.0216863
0.0216709
0.0216567
0.0216436
0.0216318
0.0216213
0.0216121
0.0216044
0.0215981
0.0215934
0.0215904
0.0215893
0.0215901
0.021593
0.0215982
0.0216059
0.0216162
0.0216294
0.0216457
0.0216653
0.0216886
0.0217158
0.0217471
0.021783
0.0218237
0.0218684
0.0219179
0.0219727
0.0220334
0.0221007
0.0221753
0.0222579
0.0223491
0.0224496
0.0225589
0.0226585
0.0227347
0.0227846
0.0228068
0.0228
0.0227635
0.0226993
0.0226099
0.0224977
0.0223647
0.0222116
0.0220358
0.0218337
0.0216017
0.0213363
0.0210407
0.0207257
0.0204091
0.0201216
0.0199194
0.019848
0.0198839
0.0199604
0.016546
0.0166528
0.016885
0.0172848
0.0178
0.0183605
0.0189249
0.019467
0.0199674
0.0204169
0.0208143
0.0211592
0.0214517
0.021692
0.0218786
0.022012
0.022096
0.0221377
0.0221464
0.022133
0.0221066
0.0220728
0.0220287
0.0219628
0.0218953
0.0218281
0.0217614
0.0216952
0.0216297
0.0215648
0.0215006
0.0214372
0.0213747
0.021313
0.0212522
0.0211924
0.0211335
0.0210755
0.0210187
0.0209628
0.0209081
0.0208546
0.0208022
0.0207511
0.0207013
0.0206529
0.0206059
0.0205605
0.0205167
0.0204746
0.0204343
0.0203959
0.0203595
0.0203253
0.0202934
0.0202639
0.0202369
0.0202128
0.0201915
0.0201733
0.0201584
0.020147
0.0201394
0.0201357
0.0201362
0.0201412
0.0201503
0.0201638
0.0201821
0.0202057
0.0202351
0.0202705
0.0203126
0.0203617
0.0204183
0.0204827
0.020553
0.0206011
0.0206117
0.0205846
0.0205208
0.0204217
0.0202889
0.0201268
0.0199402
0.019733
0.0195087
0.0192688
0.0190106
0.018731
0.0184263
0.0180934
0.0177363
0.017367
0.0170048
0.016682
0.0164571
0.0163757
0.0164078
0.0164833
0.0129874
0.0130917
0.0133157
0.0137015
0.0142027
0.0147552
0.0153215
0.0158785
0.016409
0.0169055
0.0173682
0.0177982
0.0181963
0.0185628
0.0188936
0.0191838
0.0194292
0.0196267
0.0197747
0.0198753
0.0199305
0.0199413
0.0199058
0.0198334
0.019757
0.0196799
0.0196023
0.0195242
0.0194458
0.0193673
0.0192887
0.0192102
0.019132
0.019054
0.0189765
0.0188995
0.0188232
0.0187476
0.0186729
0.0185991
0.0185264
0.0184548
0.0183845
0.0183156
0.0182481
0.0181821
0.0181178
0.0180553
0.0179947
0.017936
0.0178795
0.0178251
0.0177731
0.0177235
0.0176766
0.0176323
0.0175909
0.0175526
0.0175174
0.0174856
0.0174573
0.0174327
0.017412
0.0173954
0.0173831
0.0173752
0.0173712
0.0173721
0.0173783
0.01739
0.0174075
0.0174311
0.0174613
0.0174982
0.0175423
0.0175936
0.0176494
0.017672
0.0176472
0.0175763
0.0174626
0.0173094
0.0171201
0.0169011
0.0166592
0.0163994
0.0161263
0.015842
0.0155443
0.0152303
0.0148968
0.0145415
0.014169
0.0137923
0.0134299
0.0131127
0.0128954
0.012819
0.0128513
0.0129253
0.00969884
0.00979111
0.00998532
0.0103199
0.0107586
0.0112489
0.0117596
0.0122709
0.0127673
0.0132416
0.0136942
0.0141262
0.0145388
0.0149326
0.0153032
0.015644
0.015948
0.0162072
0.0164144
0.0165665
0.0166606
0.016694
0.0166639
0.0165899
0.0165112
0.0164312
0.0163504
0.0162687
0.0161863
0.0161035
0.0160204
0.015937
0.0158536
0.0157704
0.0156874
0.0156049
0.0155229
0.0154415
0.0153611
0.0152816
0.0152031
0.0151259
0.0150501
0.0149757
0.0149028
0.0148317
0.0147624
0.014695
0.0146296
0.0145664
0.0145055
0.014447
0.0143909
0.0143375
0.0142868
0.014239
0.0141942
0.0141526
0.0141142
0.0140792
0.0140479
0.0140202
0.0139964
0.0139768
0.0139613
0.0139503
0.0139428
0.0139402
0.0139429
0.013951
0.0139647
0.0139844
0.0140103
0.0140425
0.0140815
0.0141271
0.0141765
0.0141879
0.0141486
0.0140608
0.013929
0.0137576
0.0135514
0.0133182
0.0130655
0.0127993
0.0125246
0.0122441
0.0119558
0.0116578
0.0113476
0.0110237
0.010691
0.0103613
0.0100503
0.00978302
0.00960372
0.00954427
0.00957576
0.00964232
0.00703611
0.00710692
0.00725323
0.00750571
0.00784073
0.00822121
0.00862466
0.00903599
0.00944255
0.009838
0.0102221
0.0105953
0.0109585
0.011312
0.0116518
0.0119713
0.0122629
0.0125173
0.0127256
0.012882
0.0129816
0.0130198
0.0129924
0.0129217
0.0128466
0.0127703
0.0126931
0.012615
0.0125362
0.0124569
0.0123773
0.0122974
0.0122175
0.0121377
0.0120582
0.011979
0.0119005
0.0118226
0.0117455
0.0116694
0.0115945
0.0115208
0.0114484
0.0113775
0.0113083
0.0112408
0.0111751
0.0111113
0.0110497
0.0109901
0.0109329
0.010878
0.0108256
0.0107758
0.0107287
0.0106844
0.0106429
0.0106045
0.0105692
0.0105371
0.0105084
0.0104832
0.0104616
0.0104437
0.0104297
0.0104193
0.0104123
0.0104098
0.0104119
0.0104188
0.0104308
0.010448
0.0104706
0.0104988
0.0105327
0.0105725
0.0106155
0.0106225
0.0105835
0.0105006
0.0103785
0.0102225
0.0100379
0.00983254
0.00961402
0.00938805
0.00915922
0.00892994
0.00869879
0.00846423
0.00822465
0.00797901
0.00773123
0.00748987
0.00726583
0.00707621
0.0069514
0.00691293
0.0069396
0.00699157
0.00516033
0.00520631
0.00530088
0.00546524
0.00568618
0.00594111
0.00621612
0.00650142
0.00678825
0.00707186
0.00735173
0.00762791
0.00790082
0.00817053
0.00843374
0.00868497
0.0089176
0.00912336
0.00929364
0.00942258
0.0095049
0.00953583
0.00951038
0.0094483
0.00938279
0.00931622
0.00924874
0.0091805
0.00911164
0.00904231
0.00897266
0.00890282
0.00883296
0.00876321
0.00869373
0.00862467
0.00855617
0.00848838
0.00842144
0.00835548
0.00829065
0.00822706
0.00816483
0.0081041
0.00804496
0.00798752
0.00793188
0.00787815
0.0078264
0.00777673
0.00772922
0.00768396
0.007641
0.00760044
0.00756235
0.00752679
0.00749383
0.00746355
0.00743599
0.00741125
0.00738938
0.00737045
0.00735456
0.00734177
0.00733211
0.00732448
0.00732029
0.00731967
0.00732273
0.00732961
0.00734042
0.00735529
0.00737435
0.00739772
0.0074255
0.00745776
0.00749264
0.00749946
0.00747218
0.0074123
0.00732427
0.00721279
0.00708252
0.00693994
0.00679076
0.0066391
0.00648805
0.00633902
0.00619078
0.00604204
0.00589149
0.00573812
0.0055841
0.00543441
0.00529547
0.00517778
0.00510068
0.0050782
0.00509679
0.00513102
0.00393805
0.00396249
0.00401606
0.00411189
0.00424261
0.00439507
0.00456124
0.00473544
0.0049124
0.00508921
0.00526551
0.00544134
0.00561693
0.00579236
0.00596538
0.00613215
0.00628792
0.00642654
0.00654149
0.00662804
0.00668189
0.00669921
0.00667492
0.00662367
0.00657
0.00651548
0.00646026
0.00640445
0.00634822
0.00629169
0.00623502
0.00617837
0.00612187
0.0060657
0.00601001
0.00595494
0.00590065
0.00584728
0.00579497
0.00574385
0.00569404
0.00564566
0.0055988
0.00555358
0.00551007
0.00546836
0.00542851
0.00539059
0.00535464
0.00532072
0.00528886
0.00525911
0.00523148
0.00520601
0.00518272
0.00516162
0.00514273
0.00512606
0.00511161
0.00509939
0.00508941
0.00508168
0.00507621
0.005073
0.00507179
0.00507197
0.00507458
0.00507967
0.00508727
0.00509743
0.00511019
0.00512561
0.00514371
0.00516455
0.00518817
0.00521458
0.00524264
0.00525329
0.00524404
0.00521577
0.00517136
0.00511372
0.00504561
0.00497072
0.00489214
0.00481198
0.0047317
0.00465182
0.00457129
0.00448904
0.00440391
0.00431492
0.00422297
0.00413089
0.00404275
0.00396573
0.0039135
0.00389661
0.00390557
0.0039234
0.00307575
0.00308482
0.00311284
0.00316786
0.00324447
0.00333391
0.00343103
0.00353239
0.00363492
0.00373701
0.00383861
0.00393988
0.00404108
0.00414235
0.00424239
0.00433888
0.00442888
0.00450854
0.00457368
0.00462125
0.00464844
0.00465276
0.00462916
0.00458733
0.00454417
0.00450069
0.00445703
0.00441334
0.00436978
0.00432651
0.00428369
0.00424148
0.00420003
0.00415951
0.00412004
0.00408176
0.00404481
0.00400928
0.00397529
0.00394292
0.00391225
0.00388334
0.00385623
0.00383098
0.0038076
0.00378611
0.00376653
0.00374885
0.00373307
0.00371917
0.00370713
0.00369693
0.00368855
0.00368194
0.00367709
0.00367396
0.00367251
0.0036727
0.00367448
0.00367783
0.0036827
0.00368906
0.00369685
0.00370599
0.00371556
0.00372648
0.00373872
0.00375226
0.00376707
0.00378312
0.00380039
0.00381887
0.00383855
0.00385941
0.00388145
0.00390467
0.00392845
0.00394308
0.00394731
0.00394082
0.00392486
0.00390067
0.00386936
0.00383262
0.00379186
0.00374806
0.0037019
0.00365355
0.00360222
0.00354705
0.00348709
0.00342148
0.00335079
0.00327718
0.00320408
0.00313765
0.0030896
0.00306924
0.00306834
0.00307309
0.00234075
0.00234125
0.00235631
0.00239123
0.00244093
0.00249836
0.00255955
0.00262209
0.00268402
0.00274446
0.00280359
0.00286167
0.00291899
0.00297575
0.00303126
0.00308419
0.00313288
0.00317512
0.00320855
0.00323146
0.00324236
0.0032399
0.00321888
0.00318609
0.00315326
0.00312109
0.00308972
0.00305927
0.0030299
0.00300173
0.00297488
0.00294945
0.00292554
0.00290323
0.00288257
0.00286362
0.00284641
0.00283097
0.0028173
0.0028054
0.00279526
0.00278685
0.00278015
0.00277513
0.00277173
0.00276991
0.00276962
0.00277081
0.00277341
0.00277739
0.00278267
0.00278919
0.00279691
0.00280577
0.00281571
0.00282669
0.00283866
0.00285155
0.00286532
0.00287992
0.0028953
0.00291141
0.00292793
0.00294434
0.00296115
0.00297828
0.0029957
0.00301335
0.00303121
0.00304923
0.0030674
0.0030857
0.00310412
0.00312265
0.0031413
0.00316006
0.00317863
0.00319184
0.00319869
0.00319696
0.0031873
0.00317029
0.00314643
0.00311675
0.00308219
0.00304343
0.00300101
0.00295512
0.00290515
0.00285045
0.00279029
0.00272406
0.00265245
0.00257768
0.00250316
0.00243476
0.00238328
0.00235718
0.002349
0.00234552
0.00164618
0.00164454
0.00165477
0.00168046
0.00171696
0.00175835
0.00180145
0.00184445
0.00188601
0.00192566
0.00196367
0.00200034
0.002036
0.00207085
0.00210454
0.00213631
0.00216524
0.00219011
0.00220968
0.00222312
0.00222978
0.00222901
0.00221593
0.00219604
0.00217738
0.00216035
0.00214497
0.00213126
0.00211922
0.00210887
0.00210018
0.00209312
0.00208766
0.00208375
0.00208133
0.00208037
0.00208079
0.00208253
0.00208553
0.00208972
0.00209505
0.00210145
0.00210886
0.00211721
0.00212645
0.00213652
0.00214737
0.00215893
0.00217116
0.002184
0.00219741
0.00221134
0.00222574
0.00224058
0.00225583
0.00227146
0.00228743
0.00230371
0.00232026
0.00233701
0.00235393
0.00237028
0.00238613
0.0024017
0.00241696
0.00243189
0.00244647
0.0024607
0.00247458
0.00248811
0.00250129
0.00251414
0.00252667
0.00253889
0.00255082
0.00256245
0.00257358
0.00258032
0.00258168
0.00257498
0.00256019
0.00253783
0.00250838
0.00247282
0.00243215
0.00238711
0.00233838
0.00228629
0.00223044
0.00217039
0.00210572
0.00203609
0.00196246
0.00188716
0.00181344
0.00174656
0.00169586
0.00166835
0.00165827
0.00165251
0.00101378
0.00101504
0.00102511
0.00104614
0.00107452
0.00110592
0.00113812
0.00116991
0.00120047
0.00122958
0.00125753
0.00128461
0.0013111
0.00133718
0.00136266
0.00138714
0.00141011
0.00143094
0.001449
0.00146397
0.00147558
0.00148217
0.00148277
0.00147977
0.00147815
0.00147801
0.00147922
0.00148164
0.00148515
0.00148964
0.00149501
0.00150113
0.00150794
0.00151534
0.00152327
0.00153167
0.00154047
0.00154965
0.00155916
0.00156896
0.00157904
0.00158935
0.00159989
0.00161063
0.00162155
0.00163262
0.00164384
0.00165517
0.0016666
0.00167812
0.0016897
0.00170133
0.001713
0.00172469
0.00173643
0.00174819
0.00175998
0.00177172
0.00178338
0.00179426
0.0018043
0.00181385
0.00182288
0.0018314
0.00183944
0.00184701
0.00185413
0.00186082
0.00186711
0.00187302
0.00187858
0.0018838
0.0018887
0.0018933
0.0018976
0.00190161
0.00190514
0.00190453
0.00189835
0.00188566
0.00186519
0.00183758
0.00180338
0.00176372
0.0017197
0.00167218
0.00162195
0.00156952
0.00151467
0.00145723
0.00139706
0.00133411
0.00126939
0.00120498
0.00114349
0.00108884
0.00104794
0.00102574
0.00101913
0.00101641
0.000503715
0.000509964
0.000521317
0.000538832
0.000560392
0.000583619
0.000607381
0.000631132
0.000654514
0.000677483
0.000700252
0.00072301
0.000745912
0.000769054
0.000792311
0.000815442
0.000838162
0.00086012
0.000880968
0.000900515
0.000918599
0.000933759
0.000945
0.000953271
0.000961746
0.00097038
0.000978994
0.000987454
0.000995663
0.00100356
0.0010111
0.00101827
0.00102507
0.00103153
0.00103767
0.00104353
0.00104914
0.00105455
0.00105979
0.0010649
0.00106991
0.00107484
0.00107971
0.00108455
0.00108935
0.00109414
0.0010989
0.00110364
0.00110835
0.00111304
0.00111771
0.00112234
0.00112695
0.00113154
0.00113617
0.0011408
0.00114541
0.0011492
0.00115223
0.00115482
0.00115699
0.00115877
0.00116018
0.00116126
0.00116205
0.00116257
0.00116287
0.00116295
0.00116287
0.00116263
0.00116226
0.00116177
0.00116118
0.00116049
0.00115971
0.00115883
0.0011577
0.00115336
0.00114466
0.0011313
0.0011118
0.00108682
0.00105695
0.00102319