/*--------------------------------*- C++ -*----------------------------------*\
| =========                 |                                                 |
| \\      /  F ield         | OpenFOAM: The Open Source CFD Toolbox           |
|  \\    /   O peration     | Version:  v1912                                 |
|   \\  /    A nd           | Website:  www.openfoam.com                      |
|    \\/     M anipulation  |                                                 |
\*---------------------------------------------------------------------------*/
FoamFile
{
    version     2.0;
    format      ascii;
    class       volScalarField;
    location    "10000";
    object      omega;
}
// * * * * * * * * * * * * * * * * * * * * * * * * * * * * * * * * * * * * * //

dimensions      [0 0 -1 0 0 0 0];


internalField   nonuniform List<scalar> 
3000
(
205.34
204.427
208.794
228.439
257.735
275.021
277.286
267.447
248.529
228.121
211.071
196.869
185.016
174.813
164.027
152.056
139.38
126.543
114.662
105.027
97.7682
92.959
90.7551
90.8402
90.9975
91.0769
91.1173
91.133
91.1247
91.1
91.0652
91.0247
90.9813
90.9367
90.8924
90.8493
90.808
90.7688
90.732
90.6976
90.6657
90.6362
90.6091
90.5842
90.5614
90.5406
90.5218
90.5043
90.4888
90.4747
90.4622
90.4511
90.4412
90.4358
90.437
90.438
90.4388
90.4393
90.4395
90.4394
90.4388
90.4378
90.4362
90.434
90.4311
90.4275
90.4234
90.4187
90.4134
90.4072
90.3998
90.3914
90.3822
90.3724
90.3627
90.3563
90.3373
90.4075
92.715
97.5782
104.865
114.516
126.464
139.346
152.106
164.194
175.135
185.43
197.511
211.801
229.082
250
269.568
280.852
280.422
265.943
238.758
217.826
210.805
207.686
53.7082
52.5602
60.1301
74.145
70.9822
45.8761
43.406
41.2776
38.6549
36.2251
34.1967
32.8887
31.5401
29.7184
27.648
25.4014
23.1617
21.2211
19.7459
18.7282
18.3274
18.5251
19.0611
18.8709
17.0365
15.8601
15.1653
15.0248
14.9623
14.9161
14.8787
14.8465
14.8178
14.7922
14.7694
14.7488
14.7304
14.7146
14.7011
14.6898
14.6811
14.6747
14.6707
14.669
14.6698
14.6728
14.678
14.6855
14.6974
14.7112
14.7268
14.7442
14.7634
14.785
14.8105
14.8374
14.8654
14.8945
14.9246
14.9558
14.9879
15.021
15.0551
15.0903
15.1268
15.1646
15.2265
15.3236
15.4317
15.5617
15.7155
15.8892
16.0777
16.2722
16.4872
16.6274
17.028
16.073
15.4727
15.8869
16.836
18.1809
19.8413
21.6637
23.5322
25.3782
27.192
29.0916
31.2177
33.6238
36.3213
39.0552
41.2225
42.1909
41.5894
39.6709
38.2441
43.8088
52.3542
56.6627
22.2178
22.4118
27.2823
37.6124
42.0874
34.424
17.8191
13.4401
11.7143
10.8457
10.4213
10.2802
9.96656
9.40145
8.77707
8.17306
7.65153
7.28284
7.07719
7.00187
7.08364
7.27994
7.45251
7.2416
6.52099
6.13003
6.01483
5.99592
5.9879
5.98106
5.97378
5.9655
5.95619
5.9461
5.9354
5.9241
5.91236
5.90058
5.88866
5.87666
5.8649
5.85319
5.84168
5.83039
5.81902
5.80859
5.79939
5.7898
5.78261
5.77631
5.77076
5.76595
5.76188
5.75871
5.75671
5.75545
5.75487
5.75497
5.75577
5.75731
5.75965
5.76288
5.76713
5.7726
5.77951
5.78828
5.802
5.82745
5.87873
5.94648
6.0348
6.14651
6.28444
6.45162
6.65433
6.8822
7.21378
6.91223
6.46001
6.31284
6.423
6.71199
7.11604
7.58922
8.09923
8.62548
9.17069
9.76768
10.4278
11.1576
11.9418
12.6748
13.2169
13.4617
13.3571
13.0348
13.0788
15.1944
19.5252
22.6417
11.5541
12.0152
14.8653
21.773
27.6521
27.4241
20.7763
11.1304
7.5916
6.33481
5.7742
5.46218
5.19458
4.89473
4.61919
4.39022
4.22079
4.12275
4.08996
4.10513
4.16652
4.24929
4.29582
4.19243
3.94461
3.82964
3.80957
3.80903
3.80898
3.80676
3.80215
3.79537
3.78677
3.77678
3.76563
3.7535
3.74061
3.72726
3.71344
3.69925
3.68488
3.6703
3.65538
3.64067
3.62609
3.61207
3.59885
3.5858
3.57375
3.56224
3.5512
3.54061
3.53049
3.5209
3.51189
3.50336
3.4953
3.48772
3.48064
3.47409
3.46812
3.46281
3.45824
3.45454
3.45191
3.45061
3.45149
3.45636
3.47104
3.49853
3.53803
3.59212
3.66389
3.75731
3.87793
4.03085
4.23313
4.18843
4.01141
3.8986
3.88595
3.96192
4.10029
4.28116
4.49004
4.7175
4.96496
5.2442
5.55523
5.89655
6.25471
6.5791
6.81497
6.92969
6.91507
6.83867
6.95567
7.80653
9.68154
11.3274
7.00095
7.40237
9.04401
13.3998
18.5537
20.8571
19.3262
14.6014
8.3895
5.89996
4.81076
4.22309
3.85634
3.56492
3.34387
3.18353
3.07761
3.02115
3.00448
3.01539
3.04747
3.08693
3.10832
3.07147
2.98976
2.965
2.96941
2.97622
2.97937
2.97834
2.97368
2.96603
2.95606
2.94429
2.9311
2.91674
2.90152
2.88573
2.86935
2.85263
2.83554
2.81836
2.80124
2.7844
2.76788
2.75181
2.73629
2.72115
2.70659
2.69248
2.67878
2.66549
2.65263
2.64022
2.62826
2.61673
2.60564
2.59498
2.58477
2.57504
2.56582
2.55716
2.54913
2.54182
2.53536
2.52995
2.52596
2.5241
2.52618
2.53604
2.55341
2.57993
2.61775
2.66978
2.74006
2.83394
2.95556
2.97907
2.92222
2.87157
2.85537
2.88058
2.94042
3.0274
3.13491
3.2584
3.39866
3.56084
3.74382
3.9446
4.15242
4.33795
4.47175
4.53842
4.53752
4.50806
4.58189
4.98174
5.85403
6.71199
4.7172
5.01043
5.96314
8.59324
12.4632
15.368
16.0466
14.6062
11.4257
7.43273
5.3295
4.19186
3.59417
3.18662
2.91237
2.72801
2.60987
2.54297
2.51388
2.51082
2.5264
2.55186
2.57451
2.57763
2.5673
2.58014
2.59712
2.60909
2.61441
2.61375
2.60823
2.59888
2.58662
2.57218
2.55604
2.53851
2.52005
2.501
2.48113
2.46121
2.44123
2.42132
2.40163
2.38227
2.36329
2.34476
2.3267
2.3091
2.29201
2.27537
2.25918
2.24343
2.22814
2.21331
2.19895
2.18504
2.17158
2.15858
2.14605
2.134
2.12246
2.11145
2.10103
2.09126
2.08224
2.0741
2.06705
2.06146
2.05809
2.05876
2.06475
2.07672
2.09613
2.12498
2.16605
2.22306
2.29722
2.33166
2.32257
2.30856
2.30551
2.32109
2.35526
2.40621
2.4715
2.54929
2.64031
2.74712
2.86864
3.00173
3.13758
3.25696
3.34117
3.38084
3.37724
3.35524
3.39042
3.59246
4.03028
4.4919
3.43674
3.63685
4.19677
5.73305
8.36179
10.9825
12.5275
12.6962
11.6578
9.64772
7.29397
5.1476
4.08019
3.38417
2.94687
2.66524
2.4838
2.37457
2.31645
2.29321
2.29523
2.31498
2.34451
2.37447
2.40315
2.43436
2.45901
2.47411
2.48008
2.47845
2.4708
2.45846
2.44264
2.4243
2.40406
2.38207
2.35922
2.33598
2.31227
2.28853
2.26487
2.24142
2.21828
2.19555
2.17328
2.15151
2.13026
2.10954
2.08937
2.06973
2.05062
2.03203
2.01398
1.99645
1.97945
1.96298
1.94701
1.93157
1.91664
1.90223
1.88836
1.87505
1.86233
1.85024
1.83885
1.82826
1.81859
1.81007
1.80306
1.79835
1.79733
1.80042
1.8086
1.82323
1.84618
1.87985
1.92475
1.95428
1.96264
1.96613
1.97359
1.98979
2.01595
2.0522
2.09805
2.15304
2.21791
2.29403
2.38041
2.47392
2.56726
2.64682
2.69986
2.72034
2.71027
2.68689
2.69651
2.79795
3.02824
3.28285
2.66116
2.79156
3.12313
3.9993
5.64878
7.64668
9.30286
10.1999
10.2756
9.6578
8.535
7.01576
5.52231
4.28212
3.49681
3.00159
2.67538
2.47025
2.35213
2.29032
2.26907
2.27892
2.31328
2.36224
2.41089
2.45025
2.47677
2.49077
2.494
2.48855
2.47633
2.45865
2.43724
2.41328
2.38743
2.36015
2.33205
2.30356
2.27487
2.24624
2.21785
2.18981
2.16223
2.13518
2.10872
2.08288
2.05767
2.03312
2.00923
1.986
1.96341
1.94146
1.92016
1.8995
1.87946
1.86004
1.84122
1.82301
1.8054
1.78838
1.77196
1.75615
1.74096
1.72643
1.7126
1.69953
1.6873
1.67606
1.66602
1.65756
1.65152
1.64846
1.64902
1.65412
1.665
1.68316
1.70901
1.73012
1.74251
1.75308
1.7662
1.7842
1.80791
1.83769
1.87363
1.91583
1.96486
2.02142
2.08443
2.15089
2.2147
2.26602
2.29616
2.30159
2.28494
2.25884
2.25289
2.30096
2.42273
2.56342
2.16448
2.24524
2.44076
2.93217
3.90155
5.24891
6.62793
7.70112
8.29771
8.41897
8.15183
7.55802
6.72029
5.72773
4.75736
3.94839
3.34282
2.93036
2.68534
2.53973
2.46383
2.44283
2.47296
2.5248
2.57178
2.60425
2.62116
2.62521
2.61882
2.60417
2.58319
2.55736
2.52809
2.49645
2.4632
2.42891
2.39407
2.35904
2.32411
2.28949
2.25534
2.22177
2.18889
2.15673
2.12536
2.0948
2.06505
2.03613
2.00803
1.98075
1.95427
1.92859
1.90369
1.87956
1.85618
1.83354
1.81162
1.79041
1.7699
1.75008
1.73094
1.71248
1.69471
1.67764
1.66131
1.64574
1.631
1.61716
1.60437
1.59282
1.58294
1.57529
1.57029
1.56856
1.57092
1.57833
1.59114
1.604
1.61481
1.62684
1.64163
1.65994
1.68193
1.70765
1.73713
1.77045
1.80794
1.84974
1.89467
1.93993
1.9806
2.00972
2.02175
2.01519
1.99308
1.96492
1.9501
1.96908
2.03112
2.10673
1.83194
1.87855
1.99146
2.26316
2.80344
3.62479
4.5989
5.52924
6.25379
6.70625
6.89632
6.85361
6.61393
6.20613
5.67139
5.06681
4.45827
3.91389
3.48468
3.17978
2.9838
2.87926
2.863
2.87726
2.88559
2.88322
2.87135
2.85141
2.82482
2.79294
2.75704
2.7182
2.67733
2.63517
2.59232
2.54923
2.50627
2.4637
2.42173
2.38052
2.34018
2.30078
2.26237
2.225
2.18867
2.15339
2.11915
2.08595
2.05376
2.02257
1.99236
1.96309
1.93476
1.90734
1.8808
1.85512
1.83027
1.80625
1.78303
1.76059
1.73892
1.71802
1.69787
1.6785
1.6599
1.6421
1.62514
1.60906
1.59394
1.5799
1.56714
1.55606
1.54698
1.54029
1.53653
1.53632
1.54
1.54582
1.55311
1.56339
1.57676
1.59307
1.61196
1.63306
1.65615
1.68112
1.70798
1.73649
1.76541
1.79232
1.81351
1.82441
1.82195
1.80613
1.78008
1.75093
1.73155
1.73438
1.76317
1.80115
1.59923
1.62337
1.68601
1.83357
2.12228
2.58232
3.18565
3.84813
4.46782
4.97499
5.34319
5.5686
5.66005
5.63004
5.49263
5.2671
4.97784
4.65476
4.3309
4.03468
3.78642
3.59831
3.46624
3.37676
3.30299
3.23623
3.17315
3.1122
3.05262
2.99403
2.93632
2.87951
2.82367
2.76891
2.71533
2.66302
2.61203
2.56243
2.51425
2.46749
2.42216
2.37824
2.33573
2.29458
2.25477
2.21626
2.17901
2.14299
2.10816
2.07447
2.04189
2.01039
1.97993
1.95047
1.92198
1.89444
1.86782
1.84208
1.81722
1.7932
1.77001
1.74764
1.72609
1.70534
1.68541
1.66631
1.64805
1.63067
1.61422
1.59875
1.58436
1.57124
1.5596
1.54971
1.54193
1.53665
1.5342
1.53457
1.53787
1.54441
1.5538
1.56545
1.57871
1.59298
1.60786
1.62309
1.63847
1.65359
1.66729
1.6777
1.68232
1.67848
1.66488
1.64245
1.61408
1.58502
1.56387
1.55825
1.5689
1.58555
1.42664
1.4371
1.46996
1.54826
1.69744
1.93788
2.27251
2.67661
3.10386
3.51053
3.86908
4.16342
4.38659
4.53712
4.61506
4.62473
4.57529
4.47972
4.35383
4.21372
4.07331
3.94261
3.80576
3.66814
3.54407
3.43211
3.33017
3.23664
3.15024
3.06992
2.99479
2.92417
2.85749
2.7943
2.73425
2.67703
2.62242
2.57019
2.52018
2.47225
2.42625
2.38207
2.3396
2.29875
2.25943
2.22155
2.18504
2.14984
2.11588
2.0831
2.05145
2.02087
1.99134
1.9628
1.93523
1.90857
1.88282
1.85794
1.83391
1.8107
1.78831
1.76672
1.74593
1.72593
1.70673
1.68833
1.67077
1.65404
1.63819
1.62324
1.60921
1.5961
1.58405
1.57323
1.56389
1.55626
1.55065
1.54751
1.54686
1.54834
1.55153
1.55582
1.56058
1.56529
1.56961
1.57333
1.57623
1.57794
1.57754
1.57377
1.56515
1.55034
1.52917
1.5029
1.47394
1.44606
1.42511
1.41582
1.41738
1.42276
1.28747
1.29073
1.30713
1.34803
1.42347
1.54279
1.71238
1.92899
2.17747
2.43884
2.69766
2.94145
3.16117
3.35039
3.50253
3.61311
3.68115
3.7086
3.70037
3.66395
3.60655
3.53392
3.44572
3.3421
3.24346
3.15104
3.06448
2.98333
2.90723
2.83578
2.76864
2.70545
2.64591
2.58971
2.53658
2.48629
2.43859
2.3933
2.35022
2.30919
2.27006
2.23268
2.19694
2.16272
2.12991
2.09844
2.0682
2.03913
2.01115
1.98421
1.95825
1.93322
1.90907
1.88577
1.86329
1.84158
1.82064
1.80043
1.78094
1.76215
1.74407
1.72667
1.70996
1.69395
1.67864
1.66404
1.65018
1.63707
1.62473
1.61314
1.60219
1.59188
1.5823
1.57357
1.56582
1.55919
1.55386
1.5498
1.54596
1.54196
1.53774
1.5331
1.52774
1.52157
1.51458
1.50674
1.49803
1.4882
1.47662
1.46253
1.44516
1.42395
1.39921
1.37216
1.34463
1.31923
1.30002
1.29005
1.28788
1.28821
1.16372
1.16406
1.17241
1.19438
1.23298
1.29094
1.3717
1.47649
1.60208
1.74274
1.89295
2.04719
2.20038
2.34786
2.4836
2.60152
2.69673
2.76565
2.80666
2.821
2.81076
2.77834
2.72763
2.66378
2.60169
2.54262
2.48654
2.43334
2.38289
2.33507
2.28975
2.2468
2.20607
2.16745
2.1308
2.096
2.06294
2.03152
2.00162
1.97316
1.94604
1.92017
1.89549
1.87192
1.84939
1.82784
1.80721
1.78746
1.76853
1.75038
1.73297
1.71627
1.70025
1.68487
1.67013
1.65598
1.64243
1.62945
1.61703
1.60518
1.59388
1.58314
1.57297
1.56336
1.55434
1.54591
1.5381
1.53091
1.52434
1.51819
1.51248
1.50734
1.50281
1.49893
1.49576
1.49333
1.49165
1.48947
1.48464
1.47722
1.46766
1.45632
1.44343
1.42941
1.4146
1.39923
1.38342
1.36709
1.34984
1.33124
1.3109
1.28861
1.26477
1.24033
1.21654
1.19518
1.17903
1.17014
1.1671
1.16585
1.04576
1.04533
1.05015
1.0631
1.08433
1.11357
1.15169
1.19955
1.25684
1.32255
1.3956
1.47458
1.55791
1.64375
1.72897
1.8097
1.88193
1.94166
1.98563
2.01244
2.02153
2.01324
1.99082
1.96073
1.9306
1.9013
1.8729
1.84542
1.81889
1.7933
1.76864
1.74492
1.72212
1.70021
1.67918
1.65899
1.63962
1.62104
1.60323
1.58615
1.56978
1.55409
1.53906
1.52465
1.51085
1.49764
1.48498
1.47287
1.46128
1.4502
1.43961
1.42949
1.41984
1.41065
1.40191
1.3936
1.38573
1.3783
1.3713
1.36473
1.3586
1.35291
1.34768
1.3429
1.3386
1.33479
1.33147
1.32863
1.32615
1.3241
1.32265
1.32182
1.32163
1.32211
1.32325
1.32506
1.32735
1.32791
1.32508
1.31911
1.31046
1.29956
1.28683
1.27282
1.25802
1.24275
1.22724
1.21154
1.19543
1.17872
1.16122
1.14286
1.12396
1.10515
1.08723
1.07131
1.05918
1.05213
1.04929
1.04785
0.940201
0.940213
0.944004
0.953244
0.967183
0.984659
1.00542
1.02959
1.05713
1.08798
1.12221
1.15976
1.2004
1.2437
1.28848
1.33291
1.37481
1.41163
1.44096
1.46124
1.47139
1.47101
1.46164
1.44836
1.43478
1.42139
1.40822
1.3953
1.38264
1.37027
1.35819
1.34642
1.33495
1.32379
1.31294
1.3024
1.29218
1.28226
1.27264
1.26333
1.25431
1.24557
1.23713
1.22896
1.22107
1.21345
1.2061
1.19901
1.19218
1.1856
1.17928
1.17322
1.1674
1.16184
1.15653
1.15147
1.14667
1.14213
1.13785
1.13384
1.13011
1.12666
1.12351
1.12065
1.11811
1.11588
1.11399
1.11239
1.11117
1.11046
1.11027
1.11062
1.11154
1.11305
1.11516
1.11788
1.12096
1.12207
1.12075
1.1173
1.11195
1.10495
1.09657
1.0872
1.07719
1.0668
1.05622
1.04553
1.03466
1.02351
1.01203
1.00021
0.988264
0.976579
0.965607
0.95593
0.948489
0.943966
0.94215
0.941433
0.869318
0.869488
0.872175
0.878479
0.887771
0.899024
0.911761
0.92579
0.940951
0.957232
0.974798
0.993778
1.01426
1.03621
1.05922
1.08247
1.10492
1.12519
1.14188
1.15394
1.16056
1.16129
1.15672
1.15003
1.14314
1.13631
1.12956
1.1229
1.11634
1.10989
1.10356
1.09735
1.09126
1.0853
1.07946
1.07376
1.06819
1.06275
1.05743
1.05225
1.04719
1.04225
1.03745
1.03276
1.0282
1.02376
1.01944
1.01524
1.01115
1.00719
1.00335
0.999626
0.996024
0.992545
0.98919
0.985963
0.982864
0.979899
0.977071
0.974385
0.971845
0.969458
0.96723
0.965168
0.963281
0.961576
0.960066
0.95877
0.957791
0.957147
0.956856
0.956936
0.957409
0.958294
0.95961
0.961354
0.963357
0.963794
0.962753
0.960502
0.957178
0.952941
0.947954
0.942457
0.936666
0.930745
0.924817
0.918945
0.913105
0.907283
0.90148
0.895734
0.890186
0.885033
0.880443
0.876542
0.873461
0.871272
0.870275
0.869978
0.84598
0.845345
0.845692
0.847702
0.851409
0.856472
0.862628
0.869671
0.877393
0.885699
0.894627
0.904234
0.91458
0.925687
0.937377
0.94928
0.960876
0.971467
0.980289
0.986745
0.990344
0.990769
0.988273
0.984718
0.98105
0.977404
0.973789
0.970212
0.966677
0.963188
0.959748
0.95636
0.953026
0.949746
0.946523
0.943356
0.940244
0.937189
0.934188
0.931241
0.928347
0.925506
0.922715
0.919975
0.917284
0.914641
0.912046
0.909498
0.906996
0.904542
0.902133
0.899772
0.897458
0.895193
0.892977
0.890812
0.8887
0.886642
0.884641
0.8827
0.880822
0.879011
0.877271
0.875606
0.874022
0.872524
0.87112
0.869876
0.868816
0.86795
0.867292
0.866855
0.866652
0.866698
0.867007
0.867581
0.868323
0.868126
0.867244
0.865868
0.864078
0.861969
0.859645
0.85724
0.854872
0.852632
0.850588
0.848786
0.84725
0.846023
0.845169
0.844779
0.844946
0.8457
0.84694
0.848319
0.849091
0.848624
0.847688
0.84691
0.876119
0.874092
0.871281
0.867878
0.864754
0.862526
0.861383
0.861296
0.862137
0.863766
0.866099
0.869082
0.872683
0.876874
0.881546
0.886503
0.891472
0.896087
0.899941
0.902701
0.904086
0.903908
0.902333
0.900479
0.898602
0.896747
0.894919
0.893118
0.891344
0.889598
0.887879
0.886188
0.884524
0.882885
0.881271
0.879679
0.878109
0.876557
0.875022
0.873503
0.871996
0.8705
0.869012
0.867532
0.866056
0.864584
0.863112
0.861641
0.860169
0.858695
0.857217
0.855735
0.854249
0.852758
0.851261
0.84976
0.848254
0.846744
0.84523
0.843715
0.842198
0.840683
0.83917
0.837663
0.836164
0.834679
0.833229
0.831861
0.830581
0.829398
0.828318
0.827351
0.826506
0.825793
0.825222
0.824798
0.82448
0.823772
0.82308
0.822548
0.822213
0.822127
0.822354
0.822944
0.823938
0.825367
0.827252
0.829623
0.832559
0.836165
0.84058
0.845968
0.85238
0.859665
0.867409
0.874686
0.879653
0.880787
0.879537
0.877804
0.974883
0.970793
0.963717
0.953249
0.941344
0.929851
0.919575
0.910781
0.903497
0.897584
0.892844
0.889112
0.886262
0.884192
0.882814
0.882018
0.881658
0.881549
0.881484
0.881277
0.880771
0.879871
0.878775
0.878141
0.877562
0.877016
0.876502
0.876016
0.875556
0.875119
0.874702
0.874302
0.873917
0.873541
0.873172
0.872806
0.87244
0.872068
0.871688
0.871295
0.870885
0.870455
0.870001
0.869519
0.869005
0.868458
0.867872
0.867245
0.866574
0.865857
0.86509
0.864272
0.8634
0.862472
0.861486
0.86044
0.859332
0.858162
0.856928
0.85563
0.854266
0.852836
0.851341
0.84978
0.848154
0.846469
0.844778
0.843094
0.841423
0.839768
0.838136
0.836531
0.834962
0.833436
0.83196
0.830543
0.829192
0.827995
0.827586
0.828123
0.829597
0.83202
0.835423
0.839769
0.845009
0.851106
0.85802
0.865757
0.874463
0.884321
0.895565
0.908453
0.922981
0.938749
0.954926
0.969813
0.980083
0.983012
0.981066
0.97783
1.17261
1.16546
1.15228
1.13188
1.10777
1.08349
1.0607
1.04008
1.02188
1.00598
0.992035
0.979766
0.96893
0.959339
0.950917
0.943616
0.937381
0.932157
0.927876
0.924437
0.92176
0.919827
0.918965
0.919453
0.920078
0.920755
0.921478
0.922241
0.92304
0.923867
0.924719
0.925589
0.926471
0.92736
0.928248
0.929129
0.929997
0.930844
0.931665
0.932452
0.933199
0.933899
0.934544
0.93513
0.935649
0.936094
0.93646
0.936741
0.93693
0.937022
0.937012
0.936892
0.936659
0.936307
0.93583
0.935224
0.934484
0.933605
0.932583
0.931414
0.930095
0.928621
0.926989
0.925197
0.923244
0.921152
0.919012
0.916804
0.914529
0.912191
0.909792
0.907339
0.904835
0.902288
0.899706
0.897098
0.894518
0.892773
0.89289
0.895133
0.899418
0.905693
0.913925
0.923933
0.935517
0.948522
0.962806
0.978325
0.995308
1.01404
1.03487
1.05817
1.08384
1.11113
1.13864
1.16366
1.18092
1.18608
1.183
1.17751
1.51528
1.5037
1.48186
1.44749
1.40621
1.36398
1.32361
1.28637
1.25284
1.22291
1.19609
1.17192
1.15004
1.13013
1.11214
1.09609
1.08203
1.07003
1.06016
1.05238
1.04669
1.04314
1.04234
1.04412
1.04615
1.04829
1.05051
1.05282
1.05521
1.05767
1.06018
1.06275
1.06536
1.06799
1.07065
1.07331
1.07598
1.07862
1.08124
1.08382
1.08634
1.0888
1.09118
1.09347
1.09566
1.09773
1.09967
1.10146
1.10311
1.10459
1.10589
1.10699
1.1079
1.10859
1.10906
1.10929
1.10928
1.109
1.10846
1.10764
1.10653
1.10513
1.10342
1.1014
1.09906
1.09658
1.09392
1.09109
1.08808
1.08489
1.08152
1.07797
1.07425
1.07036
1.0663
1.0621
1.05785
1.05549
1.05659
1.06171
1.07057
1.08297
1.0987
1.11729
1.13828
1.1613
1.18605
1.21239
1.24067
1.27129
1.30475
1.34155
1.38146
1.42328
1.46494
1.50253
1.52841
1.53635
1.53168
1.52299
2.05543
2.03788
2.00474
1.95232
1.88883
1.82319
1.75974
1.7005
1.64652
1.59778
1.55357
1.51328
1.47633
1.44232
1.41122
1.38318
1.35838
1.33709
1.31955
1.30582
1.29598
1.29019
1.2897
1.29356
1.2979
1.30248
1.30729
1.31231
1.31754
1.32296
1.32856
1.33431
1.34021
1.34622
1.35234
1.35853
1.36478
1.37105
1.37732
1.38357
1.38977
1.39588
1.40189
1.40776
1.41348
1.419
1.42431
1.42938
1.43418
1.43869
1.44288
1.44674
1.45022
1.45332
1.45601
1.45826
1.46006
1.46139
1.46222
1.46255
1.46234
1.46159
1.46028
1.45839
1.45602
1.4535
1.4506
1.44729
1.44356
1.43941
1.43481
1.42977
1.42427
1.41834
1.41198
1.4052
1.39823
1.39486
1.39699
1.40566
1.42026
1.44024
1.46512
1.49401
1.52605
1.56062
1.59722
1.63564
1.67638
1.72
1.76718
1.81864
1.87403
1.93173
1.989
2.04058
2.07613
2.08707
2.08009
2.06705
2.85469
2.83015
2.78386
2.71031
2.62059
2.52707
2.43587
2.34996
2.27099
2.19908
2.13332
2.07288
2.017
1.96515
1.91738
1.87405
1.83556
1.80247
1.77533
1.75436
1.73981
1.73204
1.73362
1.74236
1.75201
1.76222
1.77298
1.78426
1.79603
1.80826
1.8209
1.83392
1.84728
1.86091
1.87476
1.88878
1.90291
1.91708
1.93123
1.94531
1.95925
1.97298
1.98645
1.99959
2.01236
2.02469
2.03653
2.04783
2.05855
2.06863
2.07803
2.08672
2.09464
2.10177
2.10806
2.11349
2.11803
2.12165
2.12433
2.12605
2.12678
2.12653
2.12527
2.1231
2.12081
2.11766
2.1136
2.10862
2.10267
2.09575
2.08785
2.07897
2.06912
2.05835
2.04668
2.03419
2.02126
2.01438
2.01505
2.02461
2.04213
2.06675
2.09776
2.13389
2.17402
2.21735
2.26326
2.31154
2.3629
2.41819
2.47839
2.54458
2.61645
2.69202
2.76773
2.83657
2.88441
2.89926
2.8893
2.871
4.05134
4.0204
3.95957
3.86078
3.73896
3.61109
3.48565
3.36683
3.25711
3.15676
3.06458
2.97947
2.90044
2.82676
2.75866
2.6968
2.64195
2.59515
2.55746
2.52939
2.5115
2.50456
2.51414
2.53559
2.5587
2.58288
2.60804
2.6341
2.66096
2.68849
2.71658
2.7451
2.77391
2.80288
2.83185
2.86068
2.88923
2.91735
2.94492
2.97179
2.99784
3.02295
3.04702
3.06994
3.09163
3.112
3.13099
3.14852
3.16454
3.17902
3.19189
3.20314
3.21274
3.22065
3.22686
3.23137
3.23417
3.23529
3.23473
3.2325
3.22864
3.22325
3.21679
3.20998
3.20155
3.19146
3.17973
3.16636
3.15137
3.13481
3.11672
3.09718
3.07628
3.0541
3.03077
3.00645
2.98171
2.96576
2.95963
2.9647
2.97992
3.0044
3.03739
3.0775
3.12351
3.17454
3.22994
3.28959
3.35456
3.42613
3.50584
3.59537
3.69458
3.80086
3.90929
4.00969
4.08125
4.10583
4.09407
4.07121
6.03803
6.00489
5.92783
5.79406
5.62527
5.44652
5.27034
5.10303
4.94839
4.80698
4.67708
4.55712
4.44572
4.34187
4.24609
4.15956
4.08372
4.02041
3.97155
3.93817
3.92137
3.92293
3.95418
4.00467
4.05696
4.10999
4.16349
4.21718
4.27078
4.324
4.37654
4.42812
4.47844
4.52724
4.57425
4.61924
4.66198
4.70229
4.74
4.77497
4.80708
4.83627
4.86245
4.8856
4.9057
4.92275
4.93678
4.94781
4.9559
4.9611
4.96348
4.9631
4.96004
4.95436
4.94613
4.93544
4.92241
4.90716
4.8898
4.87058
4.84964
4.8286
4.80665
4.78259
4.75652
4.72852
4.69871
4.66717
4.63403
4.5994
4.56341
4.5262
4.48791
4.44871
4.40878
4.36833
4.32813
4.29979
4.28549
4.28581
4.3009
4.32991
4.37223
4.42625
4.49049
4.56395
4.64581
4.73601
4.83627
4.94866
5.07572
5.22025
5.38224
5.55776
5.739
5.90969
6.03598
6.08778
6.07917
6.05575
9.93369
9.91378
9.81888
9.6256
9.3697
9.0936
8.8189
8.55682
8.31438
8.09295
7.88996
7.70296
7.52977
7.36884
7.22115
7.08889
6.9746
6.88159
6.81318
6.77106
6.75695
6.78093
6.84514
6.93672
7.02644
7.11262
7.19489
7.27293
7.34645
7.41517
7.47885
7.53728
7.59031
7.63782
7.67976
7.71611
7.74689
7.77217
7.79208
7.80673
7.8163
7.82097
7.82095
7.81645
7.80771
7.79494
7.77838
7.75826
7.7348
7.70822
7.67872
7.64651
7.61175
7.57457
7.53509
7.49351
7.45007
7.40529
7.35934
7.31451
7.27034
7.22428
7.17652
7.12727
7.07671
7.025
6.97229
6.91873
6.86446
6.80962
6.75436
6.69881
6.64315
6.58754
6.53221
6.47742
6.42417
6.38823
6.3753
6.38385
6.41852
6.47811
6.56183
6.66721
6.79189
6.93427
7.09311
7.26838
7.46321
7.68133
7.92729
8.20609
8.51774
8.85519
9.20482
9.53831
9.79575
9.92306
9.93692
9.92881
19.3105
19.3318
19.1924
18.8445
18.3585
17.8209
17.2788
16.7576
16.2734
15.83
15.4226
15.0464
14.6968
14.3705
14.069
13.7959
13.5558
13.3541
13.1963
13.0839
13.018
13.0101
13.0564
13.1385
13.2099
13.2697
13.3187
13.3578
13.3875
13.4084
13.4211
13.4258
13.4232
13.4136
13.3974
13.375
13.3468
13.3133
13.2748
13.2316
13.1841
13.1327
13.0777
13.0195
12.9583
12.8945
12.8283
12.7601
12.6901
12.6186
12.5457
12.4717
12.3968
12.3208
12.2437
12.1663
12.0891
12.0167
11.9473
11.8767
11.8052
11.7331
11.6609
11.5888
11.5172
11.446
11.3756
11.3059
11.2371
11.1693
11.1026
11.0371
10.973
10.9105
10.85
10.7919
10.7377
10.7141
10.732
10.7927
10.9081
11.0749
11.2912
11.5523
11.8537
12.1925
12.5668
12.9765
13.428
13.9284
14.4862
15.1106
15.8013
16.5441
17.3131
18.0564
18.6604
19.0176
19.1796
19.2285
48.0691
47.9977
47.5789
46.6395
45.3162
43.8264
42.3073
40.8346
39.4513
38.1686
36.9759
35.8603
34.8099
33.8162
32.8813
32.0129
31.2205
30.5152
29.9072
29.3991
28.9894
28.6768
28.4775
28.3702
28.2706
28.1718
28.0728
27.9733
27.873
27.7717
27.6694
27.5661
27.4616
27.356
27.2493
27.1413
27.0322
26.922
26.8108
26.6987
26.5859
26.4726
26.3591
26.2454
26.132
26.019
25.9068
25.7955
25.6854
25.5767
25.4697
25.3644
25.261
25.1591
25.0555
24.9653
24.8824
24.7974
24.7126
24.6295
24.5491
24.4719
24.3982
24.3281
24.2617
24.1989
24.1397
24.084
24.0319
23.9833
23.9383
23.8972
23.8602
23.8277
23.8003
23.7792
23.7674
23.8251
23.9862
24.2594
24.6685
25.2048
25.8665
26.6443
27.5294
28.5153
29.5964
30.7698
32.0462
33.4385
34.9623
36.6367
38.4604
40.4022
42.4034
44.3519
45.9952
47.0601
47.6073
47.8798
202.864
202.391
200.136
194.996
187.29
178.37
169.292
160.566
152.445
145.023
138.256
132.051
126.325
121.011
116.081
111.551
107.45
103.82
100.706
98.1386
96.133
94.714
93.9079
93.633
93.5858
93.5439
93.4994
93.4525
93.4035
93.3527
93.3004
93.2472
93.1934
93.1396
93.0863
93.0339
92.9827
92.9332
92.8856
92.8401
92.797
92.7564
92.7183
92.683
92.6503
92.6204
92.5932
92.5686
92.5467
92.5274
92.5107
92.4966
92.4849
92.4758
92.4694
92.4684
92.4705
92.4751
92.482
92.4909
92.502
92.5154
92.531
92.5491
92.5697
92.5929
92.619
92.6481
92.6802
92.7154
92.754
92.7958
92.8409
92.8893
92.9408
92.9949
93.0612
93.3529
94.1702
95.5956
97.6147
100.205
103.352
107.024
111.171
115.751
120.731
126.092
131.862
138.108
144.911
152.368
160.524
169.284
178.396
187.346
195.076
200.225
202.461
202.89
)
;

boundaryField
{
    inlet
    {
        type            cyclic;
    }
    outlet
    {
        type            cyclic;
    }
    topWall
    {
        blended         1;
        beta1           0.075;
        type            omegaWallFunction;
        value           nonuniform List<scalar> 
100
(
202.864
202.391
200.136
194.996
187.29
178.37
169.292
160.566
152.445
145.023
138.256
132.051
126.325
121.011
116.081
111.551
107.45
103.82
100.706
98.1386
96.133
94.714
93.9079
93.633
93.5858
93.5439
93.4994
93.4525
93.4035
93.3527
93.3004
93.2472
93.1934
93.1396
93.0863
93.0339
92.9827
92.9332
92.8856
92.8401
92.797
92.7564
92.7183
92.683
92.6503
92.6204
92.5932
92.5686
92.5467
92.5274
92.5107
92.4966
92.4849
92.4758
92.4694
92.4684
92.4705
92.4751
92.482
92.4909
92.502
92.5154
92.531
92.5491
92.5697
92.5929
92.619
92.6481
92.6802
92.7154
92.754
92.7958
92.8409
92.8893
92.9408
92.9949
93.0612
93.3529
94.1702
95.5956
97.6147
100.205
103.352
107.024
111.171
115.751
120.731
126.092
131.862
138.108
144.911
152.368
160.524
169.284
178.396
187.346
195.076
200.225
202.461
202.89
)
;
    }
    bottomWall
    {
        blended         1;
        beta1           0.075;
        type            omegaWallFunction;
        value           nonuniform List<scalar> 
100
(
205.34
204.427
208.794
228.439
257.735
275.021
277.286
267.447
248.529
228.121
211.071
196.869
185.016
174.813
164.027
152.056
139.38
126.543
114.662
105.027
97.7682
92.959
90.7551
90.8402
90.9975
91.0769
91.1173
91.133
91.1247
91.1
91.0652
91.0247
90.9813
90.9367
90.8924
90.8493
90.808
90.7688
90.732
90.6976
90.6657
90.6362
90.6091
90.5842
90.5614
90.5406
90.5218
90.5043
90.4888
90.4747
90.4622
90.4511
90.4412
90.4358
90.437
90.438
90.4388
90.4393
90.4395
90.4394
90.4388
90.4378
90.4362
90.434
90.4311
90.4275
90.4234
90.4187
90.4134
90.4072
90.3998
90.3914
90.3822
90.3724
90.3627
90.3563
90.3373
90.4075
92.715
97.5782
104.865
114.516
126.464
139.346
152.106
164.194
175.135
185.43
197.511
211.801
229.082
250
269.568
280.852
280.422
265.943
238.758
217.826
210.805
207.686
)
;
    }
    defaultFaces
    {
        type            empty;
    }
}


// ************************************************************************* //
