/*--------------------------------*- C++ -*----------------------------------*\
| =========                 |                                                 |
| \\      /  F ield         | OpenFOAM: The Open Source CFD Toolbox           |
|  \\    /   O peration     | Version:  v1912                                 |
|   \\  /    A nd           | Website:  www.openfoam.com                      |
|    \\/     M anipulation  |                                                 |
\*---------------------------------------------------------------------------*/
FoamFile
{
    version     2.0;
    format      ascii;
    class       volScalarField;
    location    "10000";
    object      p;
}
// * * * * * * * * * * * * * * * * * * * * * * * * * * * * * * * * * * * * * //

dimensions      [0 2 -2 0 0 0 0];


internalField   nonuniform List<scalar> 
3000
(
1.09288e-12
0.00271274
-0.00266785
0.0182168
0.0596056
0.0874153
0.102258
0.114806
0.124482
0.131136
0.136193
0.140345
0.144182
0.14823
0.152518
0.156958
0.161389
0.165541
0.169247
0.172611
0.17564
0.178119
0.179518
0.180724
0.184809
0.190534
0.19734
0.20473
0.212375
0.220081
0.227721
0.235213
0.242505
0.249563
0.256365
0.262903
0.269176
0.275183
0.280931
0.286427
0.291681
0.296702
0.301502
0.306092
0.310484
0.31469
0.318711
0.322569
0.326277
0.329832
0.33325
0.336542
0.33972
0.342795
0.345777
0.348669
0.351481
0.354222
0.356899
0.35952
0.362091
0.364619
0.367112
0.369577
0.372021
0.374451
0.376879
0.379313
0.381763
0.384242
0.386764
0.389345
0.392
0.394741
0.397573
0.4005
0.403396
0.406607
0.410052
0.413778
0.417713
0.421631
0.42537
0.428556
0.430722
0.431439
0.430312
0.427139
0.422385
0.415951
0.407287
0.395425
0.376266
0.342032
0.282935
0.184946
0.0381415
-0.0895854
-0.103943
-0.0485728
0.00215434
0.00594133
0.00199851
0.0190983
0.0575018
0.0852721
0.100442
0.1131
0.123229
0.130288
0.135563
0.139812
0.143638
0.147598
0.15178
0.156136
0.160526
0.164691
0.168443
0.171852
0.174913
0.177408
0.178939
0.180559
0.184757
0.190514
0.197328
0.204716
0.212358
0.220057
0.227687
0.23517
0.242453
0.249503
0.256298
0.262831
0.2691
0.275103
0.280847
0.286342
0.291593
0.296613
0.301413
0.306002
0.310394
0.314601
0.318623
0.322484
0.326197
0.329756
0.333178
0.336473
0.339654
0.342732
0.345715
0.348609
0.351423
0.354166
0.356845
0.359467
0.36204
0.36457
0.367064
0.369531
0.371976
0.374409
0.376839
0.379275
0.381728
0.384209
0.386734
0.389318
0.391976
0.394722
0.397557
0.400493
0.40338
0.406633
0.410132
0.413907
0.417885
0.421816
0.425512
0.428565
0.430506
0.430922
0.429453
0.425968
0.420907
0.414085
0.404858
0.39196
0.370899
0.333872
0.271691
0.173295
0.0384059
-0.0698804
-0.0839899
-0.040072
0.0056675
0.0122817
0.0124723
0.0263176
0.0579668
0.0838054
0.0992812
0.11153
0.121866
0.129344
0.134903
0.139292
0.143103
0.146911
0.150872
0.154991
0.159163
0.163175
0.166852
0.170219
0.173277
0.175858
0.177787
0.180099
0.184427
0.190226
0.197033
0.204393
0.212005
0.219679
0.227289
0.234757
0.242032
0.249078
0.255873
0.262408
0.268682
0.274692
0.280445
0.285949
0.291211
0.296242
0.301054
0.305657
0.310063
0.314288
0.318327
0.322201
0.325924
0.329494
0.332925
0.336231
0.339422
0.34251
0.345503
0.348407
0.351231
0.353984
0.356673
0.359304
0.361886
0.364426
0.36693
0.369406
0.371861
0.374303
0.376743
0.379191
0.381655
0.384146
0.38668
0.389275
0.391946
0.394703
0.397548
0.4005
0.403375
0.406696
0.41025
0.413994
0.417888
0.421682
0.425161
0.427903
0.429463
0.429466
0.427605
0.423795
0.418375
0.411034
0.400984
0.386626
0.363281
0.323561
0.259642
0.16472
0.0464196
-0.0426956
-0.0595919
-0.0291724
0.0114843
0.0203422
0.0243707
0.0365693
0.0614477
0.0842735
0.0988646
0.110992
0.120785
0.128352
0.134208
0.138798
0.142615
0.146256
0.149952
0.153774
0.157659
0.161455
0.165012
0.16832
0.171385
0.17411
0.176526
0.179501
0.18394
0.189751
0.196502
0.203789
0.211338
0.218961
0.226533
0.233973
0.24123
0.248266
0.255058
0.261595
0.267877
0.273897
0.279664
0.285183
0.290463
0.295513
0.300347
0.304977
0.309409
0.313656
0.317717
0.321614
0.325359
0.328952
0.332408
0.335736
0.33895
0.34206
0.345073
0.347998
0.350843
0.353616
0.356325
0.358976
0.361578
0.364136
0.36666
0.369155
0.37163
0.374092
0.376552
0.379019
0.381503
0.384013
0.386565
0.389179
0.391869
0.394644
0.397505
0.400479
0.40337
0.406762
0.410311
0.413901
0.417539
0.421002
0.424065
0.426303
0.427308
0.426751
0.424369
0.420084
0.414094
0.405927
0.394598
0.37818
0.351956
0.309298
0.244393
0.15512
0.0543536
-0.0175023
-0.0359586
-0.0164002
0.0199028
0.029584
0.036037
0.0470054
0.0664551
0.0865242
0.100316
0.111699
0.121064
0.127864
0.133613
0.138378
0.142215
0.145705
0.149114
0.152601
0.156153
0.159685
0.163085
0.166316
0.169399
0.172305
0.175202
0.178734
0.183303
0.189162
0.19587
0.203091
0.210573
0.218137
0.225661
0.233065
0.240296
0.247316
0.254097
0.260631
0.266915
0.27294
0.278717
0.28425
0.289547
0.294622
0.299482
0.304135
0.308589
0.31286
0.316947
0.320869
0.324639
0.328258
0.331739
0.335095
0.338334
0.341469
0.344508
0.347457
0.350326
0.353123
0.355855
0.35853
0.361155
0.363737
0.366284
0.368802
0.3713
0.373785
0.376268
0.378756
0.381261
0.383789
0.386357
0.388986
0.391689
0.394477
0.397347
0.400335
0.403245
0.406669
0.410168
0.41356
0.416866
0.419885
0.42239
0.423965
0.424249
0.422959
0.419868
0.41487
0.40801
0.398631
0.385538
0.366558
0.337175
0.291962
0.227691
0.146555
0.0635001
0.00679584
-0.011896
-0.00112945
0.0306064
0.0399684
0.0475261
0.0572511
0.0723043
0.0894425
0.102788
0.113518
0.12272
0.129197
0.13385
0.138319
0.141979
0.145321
0.148448
0.151586
0.154777
0.158006
0.161208
0.16434
0.167434
0.170517
0.173837
0.177836
0.182587
0.188565
0.195276
0.202457
0.209886
0.217397
0.224871
0.232235
0.239436
0.246431
0.253192
0.259713
0.265994
0.272014
0.277795
0.283346
0.288657
0.293746
0.29862
0.303288
0.307759
0.312046
0.316153
0.320096
0.323884
0.327525
0.331029
0.334407
0.33767
0.340827
0.343888
0.34686
0.349751
0.352571
0.355325
0.358022
0.360669
0.363273
0.365841
0.36838
0.370898
0.373404
0.375905
0.378409
0.380928
0.383467
0.386038
0.388665
0.391363
0.394141
0.397
0.39997
0.402868
0.406278
0.409688
0.412854
0.415792
0.418309
0.420171
0.420982
0.420425
0.418265
0.414288
0.40833
0.400286
0.389323
0.374077
0.352319
0.320062
0.273495
0.212121
0.14124
0.0749173
0.0306462
0.0122147
0.0159233
0.0434107
0.0515913
0.0590795
0.067403
0.0788633
0.092895
0.105298
0.115702
0.124824
0.131602
0.136358
0.1397
0.142364
0.145277
0.148046
0.150834
0.15367
0.156582
0.159556
0.162563
0.165648
0.168871
0.172524
0.176935
0.181917
0.188058
0.194821
0.201994
0.209387
0.216851
0.224276
0.231596
0.238764
0.245729
0.252457
0.258956
0.26523
0.271248
0.277025
0.28257
0.28788
0.292969
0.297845
0.302518
0.306995
0.311289
0.315407
0.31936
0.32316
0.326814
0.330333
0.333728
0.337007
0.340182
0.34326
0.34625
0.349159
0.351996
0.354769
0.357483
0.360147
0.362768
0.365353
0.367908
0.37044
0.372958
0.375469
0.37798
0.3805
0.383037
0.385594
0.388194
0.390861
0.393597
0.396407
0.399314
0.402141
0.405479
0.408738
0.411623
0.414148
0.416109
0.417271
0.417252
0.415779
0.412646
0.407629
0.400486
0.390976
0.378138
0.36055
0.336171
0.301894
0.255741
0.199566
0.140103
0.0884767
0.0537591
0.0358337
0.0342244
0.0580742
0.0644432
0.0708997
0.077538
0.0860579
0.0971021
0.107981
0.117755
0.126709
0.133901
0.139383
0.142877
0.144982
0.146689
0.148445
0.15062
0.153043
0.155623
0.158347
0.16121
0.164252
0.167532
0.1714
0.176202
0.181485
0.187784
0.194625
0.201808
0.209177
0.2166
0.223972
0.231244
0.238375
0.245305
0.252005
0.258476
0.264715
0.270709
0.276465
0.281988
0.287283
0.292358
0.297223
0.301886
0.306358
0.310647
0.314763
0.318717
0.322518
0.326177
0.329702
0.333103
0.336392
0.339575
0.342663
0.345663
0.348583
0.351431
0.354214
0.35694
0.359614
0.362244
0.364836
0.367398
0.369935
0.372454
0.374962
0.377465
0.379969
0.382481
0.385
0.387545
0.390145
0.3928
0.395513
0.398294
0.400972
0.404153
0.407179
0.409711
0.411756
0.4131
0.41351
0.412617
0.410174
0.405988
0.399802
0.391293
0.380124
0.365289
0.345473
0.319082
0.284136
0.240408
0.191258
0.143207
0.10359
0.0758632
0.0587155
0.053423
0.0742222
0.0784185
0.0831975
0.0878714
0.0938668
0.102192
0.111217
0.11992
0.128335
0.135634
0.14145
0.145744
0.148633
0.150212
0.151211
0.152381
0.153903
0.15577
0.15803
0.160648
0.16356
0.166742
0.17075
0.175929
0.181483
0.187912
0.194831
0.202026
0.20937
0.216751
0.22408
0.231299
0.238366
0.245237
0.251887
0.25831
0.264499
0.27045
0.276166
0.281652
0.286914
0.29196
0.296799
0.301439
0.305891
0.310162
0.314264
0.318206
0.321998
0.325649
0.32917
0.332569
0.335855
0.339039
0.342127
0.345128
0.348049
0.350899
0.353683
0.356409
0.359082
0.361711
0.364299
0.366854
0.369381
0.371886
0.374372
0.376846
0.379311
0.381771
0.38422
0.386675
0.389164
0.391688
0.394244
0.396824
0.399257
0.402178
0.404876
0.406969
0.40845
0.409108
0.408713
0.406906
0.40345
0.398147
0.390701
0.380733
0.367872
0.351193
0.32966
0.302322
0.268377
0.228914
0.187748
0.150021
0.119594
0.0968721
0.0807375
0.073147
0.091395
0.0933449
0.0961455
0.0987295
0.102409
0.108261
0.115296
0.12261
0.130082
0.137041
0.142849
0.147449
0.15094
0.153381
0.155131
0.156419
0.157437
0.158523
0.160002
0.161934
0.164325
0.167076
0.170966
0.17648
0.182296
0.188794
0.195715
0.202872
0.21015
0.21745
0.224694
0.231823
0.238796
0.245577
0.252146
0.258491
0.264607
0.270491
0.276146
0.281576
0.286787
0.291786
0.296582
0.301184
0.305601
0.309842
0.313917
0.317835
0.321606
0.325239
0.328744
0.332129
0.335404
0.338576
0.341654
0.344646
0.347558
0.350397
0.353171
0.355885
0.358546
0.361158
0.363728
0.366259
0.368757
0.371226
0.373667
0.376084
0.378478
0.380848
0.383191
0.385515
0.387843
0.390175
0.392501
0.394794
0.396874
0.399417
0.401685
0.403245
0.40407
0.403964
0.402705
0.399939
0.395431
0.388971
0.380243
0.368868
0.354526
0.336499
0.314166
0.287267
0.255971
0.222017
0.188771
0.159584
0.135844
0.116753
0.101797
0.0929929
0.109103
0.10899
0.109815
0.110406
0.111939
0.115499
0.120501
0.126225
0.132455
0.138651
0.144149
0.148743
0.152395
0.155154
0.157422
0.159451
0.16127
0.162939
0.164558
0.166189
0.168041
0.17021
0.173658
0.179001
0.184654
0.190945
0.197679
0.204653
0.211744
0.218861
0.225931
0.232895
0.239712
0.24635
0.252789
0.259014
0.265021
0.270807
0.276372
0.28172
0.286857
0.29179
0.296526
0.301074
0.305442
0.309639
0.313674
0.317557
0.321297
0.324901
0.32838
0.331741
0.334993
0.338144
0.341202
0.344173
0.347064
0.349881
0.352632
0.35532
0.357951
0.36053
0.363062
0.365548
0.367993
0.370398
0.372764
0.37509
0.377374
0.379612
0.381796
0.383938
0.386051
0.388124
0.390141
0.392051
0.393668
0.395714
0.397434
0.398357
0.398434
0.397486
0.395302
0.391532
0.385945
0.378344
0.368434
0.35591
0.340586
0.32204
0.300094
0.275048
0.24763
0.219591
0.193366
0.17075
0.151774
0.135445
0.12178
0.112564
0.126864
0.125062
0.124146
0.12304
0.122713
0.12419
0.127185
0.131193
0.135978
0.141085
0.14593
0.150241
0.153864
0.156729
0.15912
0.1613
0.163399
0.165562
0.167876
0.170278
0.17293
0.176083
0.180091
0.185024
0.189813
0.195296
0.201406
0.207863
0.2145
0.221218
0.227937
0.234595
0.241141
0.247541
0.253769
0.259809
0.265652
0.271293
0.27673
0.281965
0.287001
0.291844
0.2965
0.300977
0.305282
0.309422
0.313407
0.317244
0.320942
0.324509
0.327953
0.331281
0.334502
0.337622
0.340648
0.343587
0.346445
0.349227
0.351938
0.354583
0.357167
0.359691
0.36216
0.364574
0.366936
0.369243
0.371494
0.373686
0.375812
0.377862
0.379833
0.381739
0.383579
0.385322
0.38694
0.388368
0.389411
0.390838
0.391898
0.39209
0.391334
0.389471
0.386307
0.381511
0.374883
0.36627
0.355462
0.342287
0.326742
0.308699
0.288323
0.266215
0.243235
0.220738
0.20022
0.182449
0.166923
0.152844
0.14055
0.131486
0.14423
0.14122
0.138952
0.136562
0.134808
0.134553
0.135707
0.137981
0.141202
0.145003
0.148902
0.152623
0.155973
0.158812
0.16128
0.163556
0.165771
0.168113
0.170739
0.173655
0.177053
0.181269
0.186306
0.191536
0.195935
0.200818
0.206344
0.212236
0.218316
0.224499
0.230721
0.236926
0.243064
0.2491
0.255007
0.260765
0.266361
0.271786
0.277036
0.282107
0.287002
0.291722
0.296271
0.300654
0.304877
0.308946
0.312867
0.316648
0.320294
0.323814
0.327214
0.3305
0.33368
0.336759
0.339743
0.342637
0.345447
0.348176
0.35083
0.353411
0.355922
0.358364
0.360739
0.363047
0.365286
0.367452
0.369541
0.371545
0.373451
0.375247
0.376963
0.378601
0.380102
0.381436
0.38257
0.383427
0.38381
0.384522
0.384842
0.384234
0.382587
0.379769
0.37562
0.369861
0.362354
0.353038
0.341825
0.328694
0.313799
0.297223
0.279296
0.260651
0.241997
0.224204
0.208074
0.193851
0.180945
0.168823
0.157948
0.149426
0.160813
0.157098
0.153943
0.150729
0.148042
0.146548
0.146233
0.146958
0.148648
0.151056
0.153821
0.156708
0.159526
0.162124
0.164553
0.166909
0.169284
0.171845
0.174758
0.178069
0.181926
0.186546
0.191875
0.197159
0.201461
0.206013
0.211077
0.216455
0.222
0.227651
0.23336
0.23908
0.244769
0.250395
0.255931
0.261356
0.266657
0.27182
0.276839
0.28171
0.286429
0.290996
0.295413
0.299682
0.303806
0.307789
0.311634
0.315348
0.318935
0.322401
0.325749
0.328986
0.332116
0.335144
0.338075
0.340911
0.343658
0.346317
0.348892
0.351384
0.353794
0.356122
0.358368
0.360528
0.3626
0.364576
0.366449
0.368207
0.369835
0.371354
0.372786
0.37408
0.37517
0.376023
0.376603
0.376826
0.376515
0.37647
0.376022
0.374584
0.372028
0.368276
0.363234
0.356711
0.348664
0.339135
0.328154
0.315813
0.302337
0.287897
0.272823
0.25762
0.242758
0.228722
0.215912
0.20436
0.193577
0.183244
0.173824
0.166111
0.176225
0.172246
0.16866
0.165066
0.16192
0.159708
0.158435
0.158028
0.158473
0.15963
0.161267
0.163215
0.165325
0.16747
0.169656
0.17193
0.174346
0.177019
0.180077
0.183561
0.187564
0.192201
0.197414
0.202534
0.206808
0.211171
0.215865
0.220772
0.225798
0.230904
0.236061
0.241239
0.246409
0.251543
0.256621
0.261626
0.266542
0.271358
0.276065
0.280656
0.285127
0.289474
0.293696
0.297793
0.301765
0.305612
0.309338
0.312944
0.316432
0.319807
0.32307
0.326224
0.329273
0.332218
0.335063
0.33781
0.340459
0.343014
0.345473
0.347837
0.350106
0.352277
0.354348
0.356315
0.358173
0.359915
0.361531
0.36301
0.364369
0.365623
0.366718
0.367593
0.36822
0.368572
0.368613
0.36827
0.367413
0.366789
0.365766
0.363658
0.360354
0.355876
0.350226
0.343333
0.335253
0.326105
0.315989
0.305037
0.293462
0.281416
0.269141
0.256965
0.245155
0.233958
0.223573
0.213986
0.204869
0.196094
0.188072
0.181297
0.189285
0.185352
0.181724
0.178111
0.174855
0.17233
0.170562
0.169513
0.169184
0.1695
0.17031
0.171502
0.172967
0.17461
0.176421
0.178423
0.180646
0.183167
0.186072
0.189392
0.193178
0.197495
0.202312
0.207111
0.211289
0.215485
0.219879
0.224405
0.229009
0.233666
0.238362
0.243076
0.247788
0.25248
0.257135
0.261738
0.266278
0.270743
0.275125
0.279417
0.283612
0.287707
0.291698
0.295582
0.299359
0.303027
0.306587
0.310038
0.313381
0.316616
0.319745
0.322768
0.325687
0.328502
0.331213
0.333822
0.336327
0.338729
0.341026
0.343218
0.345301
0.347274
0.349132
0.350871
0.352485
0.353968
0.355312
0.356521
0.357592
0.358483
0.359154
0.359584
0.359751
0.359628
0.359182
0.358358
0.357069
0.355945
0.354484
0.352009
0.34842
0.343795
0.338198
0.331631
0.324191
0.316009
0.307195
0.297867
0.288187
0.278263
0.26825
0.258345
0.248692
0.239422
0.230655
0.222395
0.214466
0.206881
0.199978
0.194018
0.198753
0.194901
0.191338
0.187826
0.184597
0.181947
0.179932
0.178539
0.177777
0.177599
0.177905
0.178611
0.179638
0.180913
0.182425
0.184187
0.186218
0.188569
0.191297
0.194417
0.197953
0.201935
0.206351
0.210811
0.214833
0.21885
0.222991
0.227218
0.231496
0.23581
0.240152
0.244507
0.248862
0.253203
0.257517
0.261792
0.266019
0.270188
0.27429
0.27832
0.28227
0.286137
0.289915
0.293601
0.297193
0.300689
0.304086
0.307383
0.31058
0.313675
0.316669
0.319559
0.322346
0.325029
0.327608
0.33008
0.332444
0.3347
0.336844
0.338874
0.340787
0.342579
0.344246
0.345782
0.347182
0.348438
0.349545
0.350499
0.351276
0.351843
0.35218
0.352271
0.352092
0.351619
0.350826
0.349669
0.348082
0.346533
0.344681
0.341995
0.338392
0.333948
0.328734
0.322776
0.316162
0.309
0.301381
0.293396
0.285163
0.276761
0.268293
0.259889
0.251639
0.243629
0.235946
0.228615
0.221556
0.21483
0.208684
0.203259
0.205201
0.201374
0.197879
0.194517
0.191415
0.188791
0.186714
0.18519
0.184226
0.183796
0.183828
0.184257
0.185025
0.186075
0.187395
0.188992
0.190879
0.193089
0.195659
0.198592
0.201895
0.205576
0.209621
0.213732
0.217537
0.221346
0.225252
0.229228
0.233247
0.237299
0.241375
0.245465
0.249556
0.253639
0.257701
0.261734
0.265728
0.269675
0.273566
0.277395
0.281156
0.284845
0.288455
0.291983
0.295426
0.298781
0.302044
0.305215
0.30829
0.311268
0.314147
0.316926
0.319603
0.322176
0.324643
0.327002
0.329251
0.331388
0.333408
0.33531
0.337089
0.33874
0.340258
0.341639
0.342875
0.34396
0.344888
0.345647
0.34621
0.34656
0.346679
0.346552
0.34616
0.345482
0.344496
0.343171
0.341459
0.339676
0.337585
0.334811
0.331294
0.327094
0.322272
0.31686
0.310929
0.304561
0.297827
0.290798
0.283556
0.276164
0.268697
0.261249
0.253887
0.246681
0.239703
0.23299
0.226525
0.22038
0.214715
0.209604
0.209684
0.205855
0.202433
0.199247
0.196316
0.193784
0.191731
0.190177
0.189128
0.188569
0.188449
0.18872
0.189334
0.190245
0.191439
0.192915
0.194679
0.196754
0.199162
0.201902
0.204973
0.208374
0.212089
0.215889
0.219493
0.22312
0.226836
0.230615
0.234437
0.238292
0.242171
0.246065
0.249963
0.253856
0.257733
0.261586
0.265407
0.269187
0.272919
0.276597
0.280214
0.283767
0.287248
0.290655
0.293982
0.297228
0.300388
0.303459
0.30644
0.309326
0.312117
0.314809
0.3174
0.319888
0.322271
0.324545
0.326707
0.328755
0.330684
0.332492
0.334173
0.335722
0.337135
0.338406
0.339527
0.340492
0.341295
0.341919
0.342343
0.342554
0.342538
0.342279
0.341762
0.340968
0.339878
0.338469
0.336706
0.334793
0.332573
0.329786
0.326389
0.322427
0.317948
0.312982
0.307584
0.301816
0.295731
0.289381
0.282828
0.27612
0.269319
0.262493
0.255704
0.249014
0.242488
0.236174
0.230104
0.224355
0.219
0.214066
0.212805
0.20895
0.205597
0.202584
0.199826
0.197397
0.195393
0.193844
0.192758
0.192126
0.191916
0.19209
0.192608
0.193432
0.194543
0.195936
0.19761
0.199577
0.201851
0.204427
0.207302
0.21047
0.213911
0.21745
0.220889
0.224368
0.227931
0.231558
0.235228
0.238934
0.242665
0.246412
0.250166
0.253917
0.257656
0.261376
0.265067
0.268723
0.272337
0.275901
0.279411
0.282861
0.286246
0.289561
0.292802
0.295965
0.299047
0.302044
0.304953
0.307771
0.310495
0.313122
0.31565
0.318075
0.320395
0.322606
0.324706
0.32669
0.328554
0.330295
0.331907
0.333386
0.334726
0.335922
0.336965
0.337851
0.338569
0.339105
0.339443
0.33957
0.339475
0.339143
0.338561
0.337711
0.336577
0.33514
0.333372
0.331396
0.329114
0.326351
0.323074
0.319316
0.315112
0.310491
0.305493
0.300165
0.294547
0.288678
0.282603
0.276362
0.270004
0.263585
0.257164
0.250803
0.244563
0.238503
0.232696
0.227223
0.222071
0.217222
0.214942
0.211043
0.207748
0.204901
0.202314
0.199996
0.198052
0.196528
0.195429
0.194755
0.19449
0.194602
0.195059
0.195829
0.196888
0.198225
0.199835
0.20172
0.203885
0.206327
0.209039
0.212014
0.215228
0.21855
0.221855
0.225221
0.228669
0.23218
0.235737
0.239331
0.242952
0.24659
0.250238
0.253884
0.257522
0.261142
0.264738
0.268302
0.271827
0.275308
0.278738
0.282112
0.285425
0.288671
0.291848
0.29495
0.297974
0.300915
0.303772
0.306539
0.309214
0.311794
0.314276
0.316656
0.318931
0.321098
0.323153
0.325093
0.326912
0.328607
0.330173
0.331605
0.332896
0.334041
0.335034
0.335868
0.336533
0.337014
0.337299
0.337379
0.337241
0.336873
0.336262
0.335393
0.334251
0.332818
0.331073
0.329066
0.326753
0.324024
0.320851
0.317254
0.313263
0.308902
0.304202
0.299196
0.293914
0.288387
0.282643
0.276719
0.270656
0.264503
0.258316
0.252162
0.246102
0.240201
0.234567
0.229283
0.224255
0.219431
0.216359
0.212404
0.209152
0.206458
0.204037
0.201835
0.199962
0.198474
0.197376
0.196679
0.196378
0.19645
0.196869
0.197607
0.198637
0.199941
0.201508
0.203334
0.205415
0.20775
0.21033
0.213147
0.216173
0.219316
0.22252
0.225805
0.229169
0.232595
0.236069
0.239581
0.243121
0.24668
0.250248
0.253818
0.25738
0.260927
0.264452
0.267947
0.271407
0.274825
0.278196
0.281513
0.284773
0.287969
0.291098
0.294155
0.297136
0.300037
0.302855
0.305586
0.308226
0.310771
0.313219
0.315567
0.31781
0.319946
0.321971
0.32388
0.325669
0.327333
0.328868
0.330267
0.331526
0.332639
0.333599
0.334399
0.335028
0.335475
0.33573
0.335783
0.335625
0.335242
0.334624
0.333757
0.332627
0.331217
0.329511
0.327487
0.32515
0.322452
0.31936
0.315889
0.312058
0.307892
0.303412
0.298641
0.293599
0.288311
0.282796
0.277084
0.271215
0.265231
0.259193
0.253171
0.247224
0.241421
0.235901
0.230738
0.225771
0.220933
0.217264
0.213253
0.210031
0.20747
0.205205
0.20312
0.20132
0.199871
0.198784
0.198072
0.197748
0.197795
0.198191
0.198913
0.19993
0.201218
0.202763
0.20455
0.206571
0.208823
0.211297
0.213987
0.216857
0.219851
0.222983
0.226216
0.229522
0.232887
0.236301
0.239754
0.243236
0.246736
0.250246
0.253759
0.257265
0.260758
0.26423
0.267675
0.271087
0.274459
0.277785
0.281061
0.284281
0.28744
0.290534
0.293558
0.296508
0.29938
0.302169
0.304873
0.307488
0.310009
0.312433
0.314757
0.316978
0.319092
0.321095
0.322984
0.324752
0.326396
0.327909
0.329287
0.330525
0.331616
0.332554
0.33333
0.333934
0.334359
0.334596
0.334636
0.334468
0.334083
0.333468
0.332612
0.331503
0.330125
0.328467
0.326431
0.324065
0.321385
0.318355
0.314978
0.311269
0.307248
0.302932
0.29833
0.293459
0.288336
0.282975
0.277403
0.27166
0.265786
0.259844
0.253906
0.24803
0.242291
0.236839
0.231741
0.22679
0.221921
0.21783
0.213768
0.210567
0.208118
0.205994
0.204018
0.202286
0.200873
0.199795
0.199074
0.198732
0.198761
0.199144
0.199861
0.200877
0.202164
0.203701
0.205467
0.207447
0.209635
0.212025
0.214612
0.217352
0.220227
0.223313
0.226516
0.229783
0.233106
0.236478
0.239889
0.243328
0.246785
0.250253
0.253724
0.257189
0.260642
0.264076
0.267484
0.270859
0.274197
0.277491
0.280737
0.283928
0.28706
0.290128
0.293129
0.296056
0.298907
0.301677
0.304361
0.306957
0.309461
0.311868
0.314176
0.31638
0.318479
0.320468
0.322343
0.324098
0.325728
0.327227
0.328591
0.329814
0.330891
0.331812
0.332567
0.333155
0.333568
0.333795
0.333828
0.333658
0.333274
0.332667
0.331826
0.33074
0.329396
0.32779
0.325751
0.323353
0.320673
0.317684
0.314379
0.310763
0.306852
0.302656
0.298176
0.293424
0.288415
0.283156
0.277677
0.272017
0.266214
0.260334
0.25445
0.248619
0.242915
0.237498
0.232423
0.227461
0.222555
0.218181
0.214073
0.210886
0.208532
0.206531
0.20465
0.202975
0.20159
0.200517
0.199786
0.199429
0.199444
0.199818
0.200535
0.201557
0.202851
0.20439
0.206148
0.2081
0.210241
0.212563
0.215063
0.217697
0.220482
0.223545
0.226733
0.229976
0.23327
0.236612
0.239993
0.243402
0.246829
0.250266
0.253707
0.257142
0.260566
0.263971
0.267352
0.270702
0.274015
0.277286
0.280509
0.283679
0.286792
0.289842
0.292825
0.295736
0.298572
0.301328
0.303999
0.306582
0.309073
0.311468
0.313764
0.315957
0.318046
0.320026
0.321892
0.323639
0.32526
0.326751
0.328107
0.329321
0.330384
0.331288
0.332034
0.332614
0.333021
0.333244
0.333276
0.333108
0.33273
0.332134
0.331309
0.330246
0.328934
0.327375
0.32535
0.322931
0.320242
0.31728
0.314029
0.310484
0.306656
0.302547
0.298153
0.293482
0.288549
0.283358
0.27794
0.272333
0.266576
0.260734
0.254881
0.249072
0.24338
0.23797
0.23289
0.227904
0.222964
0.218394
0.21424
0.21106
0.208785
0.206892
0.205094
0.203464
0.202096
0.201024
0.200281
0.199909
0.199912
0.20028
0.200999
0.20203
0.203334
0.204881
0.206638
0.208573
0.210678
0.212944
0.215366
0.217915
0.220644
0.223702
0.226884
0.23011
0.233383
0.236705
0.240065
0.243451
0.246856
0.250271
0.253689
0.257103
0.260506
0.26389
0.267251
0.270582
0.273877
0.27713
0.280337
0.283493
0.286591
0.289629
0.2926
0.2955
0.298325
0.301071
0.303734
0.306308
0.308791
0.311179
0.313467
0.315653
0.317735
0.319711
0.321573
0.323316
0.324933
0.326421
0.327772
0.328975
0.330029
0.33093
0.331675
0.332255
0.332662
0.332888
0.332924
0.332762
0.332394
0.33181
0.331002
0.329961
0.328678
0.327159
0.325166
0.322744
0.320042
0.317097
0.313889
0.310399
0.306631
0.302583
0.298247
0.29363
0.288744
0.283595
0.278214
0.272639
0.266907
0.261084
0.255243
0.249438
0.243742
0.238319
0.233218
0.228201
0.223227
0.218513
0.214313
0.211127
0.208917
0.207117
0.205389
0.203792
0.202434
0.201358
0.200602
0.200215
0.200206
0.200568
0.201289
0.202329
0.203645
0.205203
0.206963
0.208887
0.210965
0.213188
0.215536
0.218013
0.220719
0.223783
0.226961
0.230177
0.233437
0.236745
0.240089
0.243461
0.24685
0.250249
0.253652
0.25705
0.260437
0.263807
0.267154
0.270472
0.273755
0.276997
0.280194
0.283339
0.286429
0.289459
0.292422
0.295316
0.298136
0.300877
0.303535
0.306105
0.308585
0.310968
0.313252
0.315435
0.317515
0.319491
0.321353
0.323097
0.324715
0.326199
0.327543
0.328747
0.329804
0.33071
0.331459
0.332043
0.332455
0.332686
0.33273
0.332577
0.33222
0.33165
0.330859
0.329839
0.32858
0.327092
0.325139
0.322729
0.320018
0.317084
0.313907
0.310459
0.306734
0.302726
0.298427
0.293843
0.288985
0.283858
0.278496
0.272935
0.267212
0.261394
0.25555
0.249737
0.244026
0.238579
0.233447
0.228394
0.223386
0.218546
0.214304
0.211111
0.208954
0.207239
0.205572
0.204
0.202645
0.201561
0.200792
0.200388
0.200366
0.200722
0.201445
0.202492
0.203819
0.205387
0.207152
0.209072
0.211129
0.213307
0.215593
0.218031
0.220738
0.223805
0.226978
0.230184
0.233435
0.236732
0.240066
0.243427
0.246806
0.250195
0.253588
0.256977
0.260355
0.263717
0.267057
0.270367
0.273644
0.27688
0.280072
0.283213
0.286299
0.289325
0.292286
0.295178
0.297996
0.300735
0.303392
0.305962
0.308441
0.310825
0.313108
0.31529
0.317371
0.319349
0.321216
0.32296
0.324577
0.326063
0.327414
0.328624
0.329688
0.3306
0.331355
0.331945
0.332364
0.332604
0.332657
0.332514
0.332168
0.331611
0.330835
0.329833
0.328596
0.327134
0.325221
0.322831
0.320115
0.317184
0.314031
0.310613
0.306917
0.302934
0.298656
0.294087
0.28924
0.284121
0.278763
0.273202
0.267477
0.261651
0.255795
0.249965
0.244233
0.238757
0.233591
0.228494
0.223448
0.218517
0.214227
0.211011
0.208884
0.207234
0.205621
0.204068
0.202713
0.201621
0.200838
0.200418
0.200384
0.200732
0.201451
0.202503
0.203836
0.205411
0.207179
0.209096
0.211136
0.213276
0.215518
0.21795
0.220678
0.223748
0.226923
0.230131
0.233382
0.236679
0.240013
0.243372
0.246748
0.250135
0.253525
0.256911
0.260287
0.263646
0.266982
0.270291
0.273565
0.2768
0.27999
0.28313
0.286215
0.289241
0.292202
0.295094
0.297912
0.300653
0.303311
0.305883
0.308364
0.310749
0.313034
0.315217
0.317302
0.319284
0.321152
0.322901
0.324524
0.326017
0.327374
0.32859
0.32966
0.330577
0.331338
0.331934
0.33236
0.332607
0.332667
0.332533
0.332196
0.331649
0.330884
0.329895
0.328674
0.327231
0.325355
0.322985
0.320261
0.317326
0.314189
0.310795
0.307118
0.303149
0.29888
0.294315
0.289467
0.284345
0.278981
0.273412
0.267677
0.261838
0.255966
0.250118
0.244369
0.238864
0.233657
0.228528
0.223453
0.21852
0.214203
0.210953
0.208819
0.207186
0.205591
0.204042
0.202683
0.201584
0.200793
0.200366
0.200326
0.200671
0.201392
0.202449
0.203792
0.205376
0.207155
0.20908
0.211123
0.213257
0.215492
0.217932
0.220681
0.223754
0.22693
0.23014
0.233393
0.236691
0.240024
0.243383
0.246758
0.250144
0.253532
0.256916
0.260289
0.263646
0.26698
0.270286
0.273558
0.276791
0.279979
0.283117
0.2862
0.289224
0.292184
0.295075
0.297892
0.300632
0.30329
0.305861
0.308341
0.310726
0.313011
0.315192
0.317274
0.319257
0.321128
0.32288
0.324506
0.326002
0.327361
0.328579
0.329652
0.330573
0.331336
0.331937
0.332366
0.332618
0.332683
0.332555
0.332224
0.331684
0.330927
0.329947
0.328736
0.327308
0.325465
0.323121
0.320401
0.317467
0.314342
0.310962
0.307296
0.303333
0.299067
0.294501
0.289648
0.284518
0.279144
0.273564
0.267816
0.261962
0.256073
0.250208
0.244443
0.23892
0.233687
0.22854
0.223456
)
;

boundaryField
{
    inlet
    {
        type            cyclic;
    }
    outlet
    {
        type            cyclic;
    }
    topWall
    {
        type            zeroGradient;
    }
    bottomWall
    {
        type            zeroGradient;
    }
    defaultFaces
    {
        type            empty;
    }
}


// ************************************************************************* //
