/*--------------------------------*- C++ -*----------------------------------*\
| =========                 |                                                 |
| \\      /  F ield         | OpenFOAM: The Open Source CFD Toolbox           |
|  \\    /   O peration     | Version:  v1912                                 |
|   \\  /    A nd           | Website:  www.openfoam.com                      |
|    \\/     M anipulation  |                                                 |
\*---------------------------------------------------------------------------*/
FoamFile
{
    version     2.0;
    format      ascii;
    class       volVectorField;
    location    "10000";
    object      U;
}
// * * * * * * * * * * * * * * * * * * * * * * * * * * * * * * * * * * * * * //

dimensions      [0 1 -1 0 0 0 0];


internalField   nonuniform List<vector> 
3000
(
(0.379352 0.0107061 -5.50836e-22)
(0.346464 -0.011421 -2.62642e-20)
(0.280421 -0.0420615 0)
(0.0891476 -0.0341441 1.92943e-18)
(-0.131056 0.0462127 -1.51136e-17)
(-0.136487 0.0759396 -2.28032e-21)
(-0.108627 0.0716252 -2.68295e-17)
(-0.095189 0.0665964 -1.75538e-20)
(-0.0834874 0.059374 7.26797e-17)
(-0.0736192 0.0523716 -4.09234e-17)
(-0.06844 0.0485302 8.91816e-17)
(-0.0677352 0.0479683 -4.65977e-17)
(-0.0701229 0.049384 -4.76859e-17)
(-0.0733969 0.0511543 -1.92532e-19)
(-0.0762606 0.0519864 -5.54905e-21)
(-0.0784945 0.0512941 5.14306e-17)
(-0.0799093 0.0488438 4.2e-19)
(-0.0809149 0.044721 -4.24678e-19)
(-0.082436 0.0393933 -2.83338e-17)
(-0.0847214 0.0332724 0)
(-0.0879308 0.0263574 2.89178e-17)
(-0.0940808 0.0187058 4.15721e-19)
(-0.108437 0.0106512 -7.31719e-18)
(-0.131456 0.00443408 7.25864e-19)
(-0.149938 0.00294516 3.52055e-19)
(-0.15823 0.00219529 -3.39663e-19)
(-0.160641 0.00165178 1.79397e-19)
(-0.159328 0.00123242 -1.78238e-19)
(-0.15528 0.00091595 0)
(-0.149514 0.000697132 0)
(-0.142694 0.000544765 2.1491e-19)
(-0.135235 0.00043404 -2.21003e-19)
(-0.127402 0.000350473 2.42429e-19)
(-0.119382 0.000287315 7.0662e-21)
(-0.111317 0.000240379 -2.67515e-19)
(-0.103305 0.000203565 -2.92266e-19)
(-0.095401 0.000173009 3.04024e-19)
(-0.0876603 0.000151404 0)
(-0.0801257 0.000133565 -1.75973e-19)
(-0.072814 0.000118906 1.83571e-19)
(-0.0657457 0.000108658 -1.98731e-19)
(-0.0589396 0.000100767 -3.46448e-21)
(-0.0523945 9.34903e-05 2.20458e-19)
(-0.0461238 8.82322e-05 -1.18743e-19)
(-0.0401206 8.19471e-05 1.24129e-19)
(-0.0343781 6.56284e-05 0)
(-0.0289411 6.13381e-05 0)
(-0.023747 4.52333e-05 0)
(-0.0188997 9.23416e-06 0)
(-0.0143142 -1.60199e-05 0)
(-0.010028 -4.07789e-05 0)
(-0.00601707 -6.59327e-05 0)
(-0.00227477 -9.23194e-05 0)
(0.00128511 -0.000103054 0)
(0.00451104 -9.88032e-05 0)
(0.00750202 -9.79205e-05 0)
(0.0102493 -9.9186e-05 0)
(0.0127574 -0.000101085 0)
(0.0150273 -0.000103226 0)
(0.0170556 -0.000105369 0)
(0.018836 -0.000107426 3.70157e-19)
(0.0203584 -0.000109285 2.53629e-21)
(0.0216087 -0.000110801 -1.10729e-18)
(0.0225684 -0.000112157 1.47987e-18)
(0.0232144 -0.00011435 -7.42195e-19)
(0.0235272 -0.000121874 0)
(0.0235378 -0.000136612 7.62203e-19)
(0.0232224 -0.000152809 -5.48645e-15)
(0.0225063 -0.000163448 -5.68275e-15)
(0.0212807 -0.000167475 8.00972e-19)
(0.0194284 -0.000171511 5.40698e-21)
(0.0168486 -0.000182742 -8.4488e-19)
(0.0134617 -0.000205276 0)
(0.00923546 -0.000246027 0)
(0.00408658 -0.000274199 1.99363e-18)
(-0.00164176 -0.000430229 -2.01958e-18)
(-0.0100874 -0.000356736 0)
(-0.0166769 -0.00149738 -2.98081e-17)
(-0.0166764 -0.0023279 0)
(-0.0122646 -0.0016394 1.1583e-16)
(-0.00541818 0.000696939 0)
(0.00412313 0.00543983 0)
(0.0158597 0.0124608 -1.93388e-16)
(0.0300041 0.02188 -3.37302e-16)
(0.0461122 0.0331918 0)
(0.0638959 0.0458255 0)
(0.0824687 0.058823 0)
(0.0997091 0.0709269 0)
(0.116155 0.0831376 2.00054e-19)
(0.133542 0.0967283 -1.86499e-19)
(0.154303 0.113684 1.70323e-16)
(0.185716 0.138737 0)
(0.23652 0.174548 2.7913e-20)
(0.312931 0.21908 -5.13666e-19)
(0.421872 0.266359 3.07821e-17)
(0.565211 0.297913 4.96427e-19)
(0.698412 0.270587 1.0167e-21)
(0.728306 0.176948 -1.05117e-21)
(0.630169 0.0817756 0)
(0.478675 0.0296167 0)
(0.701305 0.0136762 2.18274e-22)
(0.67196 -0.0170525 -4.44042e-20)
(0.586159 -0.0648778 1.58612e-22)
(0.389188 -0.0790252 0)
(0.115726 -0.0122872 9.03609e-18)
(-0.18562 0.138193 -4.13198e-21)
(-0.18864 0.147953 2.21451e-20)
(-0.176547 0.143683 2.31172e-17)
(-0.16647 0.134832 -2.66381e-17)
(-0.158825 0.126806 2.05065e-19)
(-0.155397 0.122733 -3.23832e-17)
(-0.155251 0.12197 1.24059e-19)
(-0.15781 0.123533 1.29736e-19)
(-0.161622 0.125253 -1.25516e-19)
(-0.165289 0.12459 -3.20781e-17)
(-0.16878 0.120486 -5.05274e-19)
(-0.172151 0.112671 3.21988e-17)
(-0.175699 0.101351 -3.18923e-17)
(-0.179884 0.0874561 1.5693e-17)
(-0.184716 0.072072 2.44959e-19)
(-0.189914 0.0555845 -1.52427e-17)
(-0.196411 0.038559 -7.77004e-18)
(-0.206518 0.0219708 3.50223e-18)
(-0.219978 0.00929653 -2.01173e-19)
(-0.229534 0.00422694 0)
(-0.229731 0.000982653 0)
(-0.224575 -0.00106803 1.98827e-19)
(-0.21619 -0.00233977 -1.96867e-19)
(-0.206098 -0.00315608 0)
(-0.194978 -0.00366343 0)
(-0.183233 -0.00397051 -2.35868e-19)
(-0.171124 -0.00415043 -7.72393e-21)
(-0.158828 -0.00424494 2.57486e-19)
(-0.146483 -0.00427493 -1.40989e-19)
(-0.134199 -0.00425589 1.4622e-19)
(-0.122047 -0.00420741 0)
(-0.11007 -0.00414003 0)
(-0.0983198 -0.00404764 1.81752e-19)
(-0.0868278 -0.0039461 -3.84093e-19)
(-0.075611 -0.00383798 4.10389e-19)
(-0.0646845 -0.00371927 -4.38809e-19)
(-0.0540733 -0.00359818 3.5114e-19)
(-0.0437622 -0.00347651 1.95796e-21)
(-0.0337916 -0.00335575 -1.3372e-19)
(-0.024115 -0.00323113 0)
(-0.0147967 -0.00311442 0)
(-0.00590509 -0.0029983 0)
(0.00291679 -0.00285136 4.35563e-20)
(0.0110782 -0.00268593 -2.11069e-20)
(0.0188725 -0.00252696 -2.10459e-20)
(0.0263016 -0.00237965 2.09928e-20)
(0.0333804 -0.00224204 -2.05515e-20)
(0.040113 -0.00211465 0)
(0.0465144 -0.00197914 0)
(0.0525752 -0.00183424 0)
(0.0583129 -0.00169653 0)
(0.0637189 -0.00156322 0)
(0.0687923 -0.00143168 0)
(0.0735298 -0.00130006 -3.18418e-19)
(0.0779243 -0.00116663 3.16023e-19)
(0.0819654 -0.00102971 0)
(0.0856376 -0.000887332 0)
(0.08892 -0.000737125 -3.21183e-19)
(0.091785 -0.000576603 6.44695e-19)
(0.0941944 -0.000403612 2.13378e-21)
(0.0960971 -0.000219229 2.13948e-21)
(0.0973912 -2.13421e-05 -6.69304e-19)
(0.0979809 0.000197605 -3.4443e-19)
(0.0978585 0.000455241 6.9435e-19)
(0.0968577 0.000774417 0)
(0.0947735 0.0011604 0)
(0.0913805 0.00160687 -7.71355e-19)
(0.0864305 0.002109 1.61799e-18)
(0.0796688 0.00266134 -8.5966e-19)
(0.0706793 0.00327109 0)
(0.0598613 0.00384451 -1.04192e-18)
(0.0435968 0.00492507 1.17743e-18)
(0.0298165 0.00439171 0)
(0.0292703 0.00425603 0)
(0.0378598 0.00779657 0)
(0.0491796 0.0146585 -9.20511e-19)
(0.0627664 0.0248565 7.89882e-19)
(0.0792379 0.0385997 -6.95976e-19)
(0.0986003 0.0557572 6.66752e-19)
(0.120563 0.0756408 -7.04854e-17)
(0.144903 0.0974205 -4.99584e-19)
(0.170975 0.120122 4.61415e-19)
(0.197303 0.142754 0)
(0.223773 0.165895 5.11296e-17)
(0.251569 0.190882 0)
(0.282842 0.219504 -3.25411e-19)
(0.323318 0.254858 0)
(0.381115 0.298106 0)
(0.463024 0.34484 -2.29108e-17)
(0.574071 0.384194 -1.5827e-17)
(0.71314 0.394047 5.08489e-19)
(0.851567 0.335173 1.02668e-18)
(0.910757 0.203274 7.72709e-19)
(0.856972 0.0852428 0)
(0.758418 0.0306725 0)
(0.807416 0.0200373 0)
(0.785966 -0.0140003 2.77202e-20)
(0.723236 -0.0669366 2.26198e-19)
(0.566859 -0.1003 0)
(0.339984 -0.0697401 0)
(0.0556182 0.0350866 -1.08411e-17)
(-0.15186 0.128053 1.70261e-17)
(-0.175345 0.14101 -1.50524e-19)
(-0.177226 0.141013 0)
(-0.176825 0.140065 1.82705e-17)
(-0.177659 0.13991 1.95812e-17)
(-0.179467 0.140875 2.03548e-17)
(-0.181967 0.142665 0)
(-0.184655 0.143622 -2.04129e-17)
(-0.187111 0.142011 2.02889e-17)
(-0.189561 0.13694 0)
(-0.192244 0.128188 -1.93637e-17)
(-0.195523 0.11587 1.98056e-19)
(-0.199545 0.100662 -1.93687e-17)
(-0.203954 0.0835064 9.33277e-18)
(-0.208346 0.0649215 1.83828e-17)
(-0.212865 0.0455215 0)
(-0.218214 0.02659 -1.83185e-18)
(-0.223081 0.0119102 -2.3715e-19)
(-0.223677 0.00450279 2.27546e-19)
(-0.219271 -0.000566668 -2.12542e-19)
(-0.211736 -0.00377066 1.08206e-19)
(-0.202111 -0.0057314 -2.1539e-19)
(-0.191129 -0.00694939 -3.99294e-21)
(-0.179277 -0.0077082 1.12911e-19)
(-0.166884 -0.00817033 0)
(-0.154171 -0.00844021 -1.27329e-19)
(-0.141294 -0.00857736 1.29462e-19)
(-0.128374 -0.00861128 0)
(-0.115516 -0.00856547 0)
(-0.102789 -0.00847118 0)
(-0.0902335 -0.00834489 0)
(-0.0778961 -0.00817745 0)
(-0.0658055 -0.00799293 -8.9264e-20)
(-0.0539886 -0.00779767 9.20113e-20)
(-0.042444 -0.0075844 -9.84982e-20)
(-0.0312128 -0.00736866 1.01766e-19)
(-0.0202574 -0.00714679 0)
(-0.00965565 -0.00692548 5.71207e-20)
(0.000701379 -0.00668632 8.19319e-22)
(0.0106635 -0.00642615 7.85383e-22)
(0.0201515 -0.00618071 -5.96524e-20)
(0.0293384 -0.00590599 0)
(0.0381141 -0.00559832 0)
(0.0465546 -0.00531116 0)
(0.0546457 -0.0050411 0)
(0.0623951 -0.00478366 0)
(0.0698064 -0.00453646 0)
(0.0768867 -0.00428961 0)
(0.083643 -0.00404177 6.35043e-20)
(0.0900806 -0.00379964 5.23895e-22)
(0.0961945 -0.00356042 -6.39931e-20)
(0.101983 -0.0033213 0)
(0.107444 -0.00307979 0)
(0.112571 -0.00283327 -1.32569e-19)
(0.117357 -0.00257883 1.33013e-19)
(0.121788 -0.00231304 -1.35484e-19)
(0.125848 -0.00203166 1.36249e-19)
(0.129516 -0.00172969 0)
(0.13276 -0.00140108 -2.8237e-19)
(0.135541 -0.00103788 2.85352e-19)
(0.137799 -0.000631042 0)
(0.139452 -0.000178401 2.99762e-19)
(0.140378 0.000341276 1.99023e-21)
(0.140546 0.000972304 2.06169e-21)
(0.139789 0.00173897 2.15939e-21)
(0.137913 0.00264647 -6.76615e-19)
(0.134692 0.00370316 7.08216e-19)
(0.12987 0.00492379 2.65373e-21)
(0.123068 0.00630839 -1.19905e-18)
(0.114322 0.00786618 8.60505e-19)
(0.101095 0.0100648 0)
(0.089784 0.0118413 -7.18627e-18)
(0.0859936 0.0142667 -1.57877e-17)
(0.0892763 0.019858 -2.80631e-17)
(0.0969178 0.0289313 0)
(0.108053 0.0412573 2.11191e-17)
(0.122805 0.0567707 3.7729e-17)
(0.141077 0.0752079 3.41578e-17)
(0.16254 0.0959358 3.14809e-17)
(0.18686 0.118244 -2.24967e-19)
(0.213428 0.141465 0)
(0.241118 0.16518 1.97304e-19)
(0.26975 0.189961 -4.799e-17)
(0.300394 0.216913 2.21218e-17)
(0.335152 0.247293 -4.03307e-17)
(0.378983 0.282435 0)
(0.438948 0.321396 -1.40923e-17)
(0.520588 0.358485 1.07627e-17)
(0.626064 0.382251 4.19465e-21)
(0.749874 0.373322 4.49864e-18)
(0.865883 0.307128 -5.74408e-19)
(0.921834 0.19194 -2.10719e-19)
(0.899773 0.091934 -1.10355e-19)
(0.84317 0.0409441 0)
(0.844642 0.0253201 0)
(0.827564 -0.0075889 4.97643e-20)
(0.784987 -0.054811 -1.52061e-19)
(0.673949 -0.0960671 -7.53112e-19)
(0.496942 -0.0930432 3.64808e-21)
(0.274038 -0.03702 5.32809e-18)
(0.0426325 0.0451443 -1.0326e-17)
(-0.11074 0.104126 -1.18305e-17)
(-0.146333 0.118514 0)
(-0.155404 0.123664 -1.08908e-17)
(-0.160755 0.127889 -2.3248e-17)
(-0.16552 0.13163 0)
(-0.169991 0.135199 -1.24192e-17)
(-0.174234 0.137281 1.24635e-17)
(-0.178056 0.136723 1.95095e-19)
(-0.181655 0.132724 -1.88151e-19)
(-0.185231 0.125032 0)
(-0.189104 0.113704 1.2012e-17)
(-0.193309 0.0992555 5.93439e-18)
(-0.197472 0.0825382 -5.84241e-18)
(-0.20125 0.064241 -5.71988e-18)
(-0.204511 0.0451213 2.56242e-18)
(-0.207225 0.0265828 1.60618e-19)
(-0.207909 0.0118323 7.44031e-20)
(-0.205015 0.00295852 0)
(-0.199191 -0.00324734 0)
(-0.191115 -0.00723857 0)
(-0.18128 -0.00975165 0)
(-0.170236 -0.0113446 0)
(-0.158385 -0.0123455 0)
(-0.146018 -0.0129545 0)
(-0.13334 -0.0133048 0)
(-0.120499 -0.0134732 0)
(-0.10761 -0.0134978 0)
(-0.0947727 -0.01341 0)
(-0.0820553 -0.013253 0)
(-0.069502 -0.0130501 0)
(-0.0571568 -0.0127906 0)
(-0.0450392 -0.0125044 0)
(-0.0331963 -0.0122044 0)
(-0.0216025 -0.0118786 0)
(-0.0103232 -0.0115486 0)
(0.000711998 -0.0112013 0)
(0.0113733 -0.010841 0)
(0.0216518 -0.0104609 0)
(0.0315764 -0.0100509 0)
(0.0411222 -0.0096521 0)
(0.0503309 -0.00924483 1.56771e-20)
(0.0591926 -0.0088217 -1.56693e-20)
(0.0677336 -0.00841697 0)
(0.0759415 -0.00802891 0)
(0.0838195 -0.0076541 -1.63599e-20)
(0.0913704 -0.0072895 -1.66871e-20)
(0.0985987 -0.00692774 3.31263e-20)
(0.105512 -0.0065669 0)
(0.112114 -0.00621023 0)
(0.1184 -0.00585528 0)
(0.124371 -0.00549903 0)
(0.130023 -0.00513841 0)
(0.135351 -0.00476993 0)
(0.140349 -0.00438962 0)
(0.145006 -0.00399268 0)
(0.149308 -0.00357324 1.49176e-19)
(0.153237 -0.00312406 -1.50437e-19)
(0.156767 -0.00263607 0)
(0.159866 -0.00209739 0)
(0.162491 -0.0014925 0)
(0.164587 -0.000806642 0)
(0.166068 -2.41353e-05 0)
(0.166862 0.000900097 0)
(0.166895 0.00201488 0)
(0.16601 0.00334079 0)
(0.164042 0.00489893 0)
(0.1608 0.00672206 0)
(0.156002 0.00882687 0)
(0.149596 0.0113019 0)
(0.139904 0.0144015 -3.68469e-19)
(0.130798 0.0177454 5.16414e-19)
(0.126338 0.0221502 8.64772e-18)
(0.127199 0.0292357 2.8388e-17)
(0.13251 0.0394303 0)
(0.141867 0.0525892 -2.38575e-20)
(0.155307 0.0685532 -2.04837e-17)
(0.172657 0.0870209 0)
(0.193495 0.107454 -2.64661e-19)
(0.217386 0.129291 2.45097e-19)
(0.243717 0.152113 1.13988e-19)
(0.271611 0.175827 -1.38826e-17)
(0.301064 0.200959 1.31049e-17)
(0.333241 0.228357 -1.82335e-19)
(0.37035 0.258775 1.10731e-17)
(0.416934 0.292302 9.37415e-18)
(0.478827 0.326639 7.95559e-18)
(0.559777 0.355482 -6.20643e-18)
(0.659302 0.36791 4.13536e-18)
(0.769077 0.348558 1.60063e-21)
(0.865713 0.283924 -3.25025e-22)
(0.913281 0.186758 -1.25935e-19)
(0.905017 0.101384 7.05655e-20)
(0.870154 0.0512552 -9.86824e-22)
(0.864293 0.0300669 0)
(0.849303 -0.00074877 -3.51097e-20)
(0.818284 -0.0401589 7.65906e-22)
(0.74151 -0.0798624 5.40289e-19)
(0.610177 -0.0938051 0)
(0.437008 -0.0709375 -3.41441e-18)
(0.24319 -0.0217018 -5.69275e-18)
(0.0518116 0.0395349 1.63428e-20)
(-0.0771063 0.0837295 0)
(-0.11509 0.0981493 -2.17916e-20)
(-0.130129 0.107615 7.93841e-18)
(-0.139397 0.11486 -8.15326e-18)
(-0.146499 0.120688 8.30078e-18)
(-0.153079 0.124456 0)
(-0.158932 0.125425 1.29492e-19)
(-0.164197 0.122927 -2.55463e-19)
(-0.168995 0.11672 1.25944e-19)
(-0.173607 0.106837 -3.78829e-18)
(-0.178058 0.0936911 3.76648e-18)
(-0.182079 0.0780537 -2.51544e-19)
(-0.185416 0.0607128 2.42222e-19)
(-0.187809 0.0425317 -4.03037e-18)
(-0.188796 0.0249008 2.22966e-19)
(-0.186954 0.0103646 -2.63577e-20)
(-0.182035 0.000418468 -1.01559e-19)
(-0.1754 -0.00674194 -3.18775e-21)
(-0.166966 -0.011514 9.35387e-20)
(-0.157071 -0.014625 0)
(-0.146115 -0.0166378 1.00194e-19)
(-0.134424 -0.0179189 -9.95757e-20)
(-0.122251 -0.0187032 0)
(-0.109785 -0.0191535 0)
(-0.0971619 -0.0193655 0)
(-0.0844897 -0.0193865 0)
(-0.0718635 -0.0192567 -1.23008e-19)
(-0.059346 -0.019032 2.52206e-19)
(-0.0469891 -0.0187442 3.01976e-21)
(-0.0348346 -0.0183849 -2.03152e-19)
(-0.0228792 -0.0179834 6.98095e-20)
(-0.0112127 -0.0175631 -7.38495e-20)
(0.000240761 -0.0171049 7.46849e-20)
(0.0113659 -0.0166259 0)
(0.0221373 -0.0161232 -7.82057e-20)
(0.0325668 -0.0155941 7.79192e-20)
(0.0426511 -0.015047 0)
(0.0524052 -0.0144823 -4.04411e-20)
(0.0618216 -0.013926 4.03745e-20)
(0.0709072 -0.013367 0)
(0.0796714 -0.0128004 0)
(0.0881258 -0.0122498 0)
(0.0962621 -0.0117152 -1.06774e-20)
(0.104081 -0.0111944 1.06875e-20)
(0.111584 -0.0106846 0)
(0.118775 -0.0101802 0)
(0.12566 -0.00967855 0)
(0.13224 -0.0091806 0)
(0.138514 -0.00868373 0)
(0.14448 -0.00818455 0)
(0.150137 -0.00767931 0)
(0.15548 -0.00716362 9.44483e-20)
(0.160502 -0.00663234 6.86892e-22)
(0.165195 -0.00607924 6.80544e-22)
(0.169547 -0.00549674 -9.75205e-20)
(0.173541 -0.00487535 0)
(0.177156 -0.00420318 0)
(0.180365 -0.00346499 0)
(0.183134 -0.00264145 -2.09366e-19)
(0.185419 -0.00171065 4.25757e-19)
(0.187168 -0.000650553 1.43789e-21)
(0.188293 0.000581615 -2.22576e-19)
(0.188766 0.00204545 0)
(0.188468 0.00378122 2.3654e-19)
(0.187276 0.00581917 -2.42952e-19)
(0.185054 0.00820588 0)
(0.181597 0.0109818 2.66638e-19)
(0.17684 0.0142843 -2.7948e-19)
(0.16961 0.0182896 5.23807e-19)
(0.162461 0.022933 1.8861e-18)
(0.158724 0.0288138 -6.29969e-19)
(0.159171 0.0369531 -8.58763e-18)
(0.1637 0.0477973 0)
(0.172318 0.0613048 -7.42039e-18)
(0.185168 0.0773047 0)
(0.202088 0.0954935 0)
(0.222615 0.115419 0)
(0.246268 0.136652 -1.58648e-19)
(0.272475 0.158962 1.49193e-19)
(0.300585 0.182435 9.01123e-18)
(0.330825 0.207506 -6.47287e-20)
(0.364499 0.234733 -7.82591e-18)
(0.403902 0.264323 7.00306e-18)
(0.453114 0.295352 -2.5984e-19)
(0.516645 0.324563 0)
(0.596351 0.345463 -3.76528e-18)
(0.689493 0.348377 -1.93575e-19)
(0.786271 0.322256 2.42555e-21)
(0.866753 0.261566 -2.57408e-21)
(0.907011 0.179878 -2.30608e-20)
(0.905872 0.106764 -3.91546e-23)
(0.883503 0.0587927 1.16885e-21)
(0.879337 0.035139 5.3269e-22)
(0.865818 0.0061465 -1.9826e-21)
(0.841462 -0.0268255 -3.01264e-22)
(0.787485 -0.061337 1.99628e-21)
(0.692783 -0.0827331 0)
(0.562132 -0.0803516 2.38213e-18)
(0.407448 -0.0567922 3.53692e-18)
(0.240899 -0.0171474 0)
(0.0807332 0.0279584 0)
(-0.0322673 0.0622403 7.80537e-18)
(-0.0780974 0.0790388 1.10843e-19)
(-0.100398 0.0920258 6.31438e-18)
(-0.113142 0.101317 0)
(-0.123448 0.107659 0)
(-0.132057 0.110598 5.94127e-18)
(-0.139465 0.109838 1.89868e-19)
(-0.145809 0.1053 -1.94068e-19)
(-0.151362 0.097081 3.28453e-18)
(-0.156188 0.0855321 -3.08785e-18)
(-0.160164 0.0713439 0)
(-0.163143 0.0553414 0)
(-0.16481 0.038423 1.46741e-18)
(-0.16442 0.0218314 0)
(-0.160597 0.00750081 0)
(-0.153927 -0.00328039 0)
(-0.146542 -0.01124 1.59421e-19)
(-0.137731 -0.0167433 -1.53644e-19)
(-0.127783 -0.0204424 1.61332e-19)
(-0.116961 -0.0228875 -3.24122e-19)
(-0.105507 -0.024467 1.6381e-19)
(-0.0936323 -0.025442 0)
(-0.081494 -0.0260027 0)
(-0.0692221 -0.0262638 -9.34447e-20)
(-0.0569111 -0.0262828 9.4044e-20)
(-0.0446475 -0.0261099 1.00096e-19)
(-0.0324756 -0.0258098 2.52277e-21)
(-0.0204713 -0.0254242 -1.04722e-19)
(-0.00867358 -0.0249576 0)
(0.00298427 -0.0244202 1.13567e-19)
(0.0143016 -0.0238431 -2.27873e-19)
(0.0253324 -0.0232246 1.72296e-19)
(0.0360548 -0.0225664 -5.77439e-20)
(0.0464609 -0.0218789 0)
(0.0565509 -0.0211688 -5.99457e-20)
(0.0663234 -0.0204425 5.96921e-20)
(0.0757857 -0.0197033 -3.05771e-20)
(0.0849358 -0.0189688 -3.9065e-22)
(0.0937732 -0.018235 4.63938e-20)
(0.102306 -0.0175003 -1.5562e-20)
(0.110541 -0.0167796 2.42511e-25)
(0.118473 -0.0160742 -8.02318e-21)
(0.126102 -0.0153831 8.01992e-21)
(0.133429 -0.0147038 0)
(0.140456 -0.014032 -3.30244e-20)
(0.147187 -0.013365 9.9745e-20)
(0.153622 -0.0127015 5.6688e-22)
(0.159762 -0.0120387 -6.74631e-20)
(0.165605 -0.0113726 0)
(0.171149 -0.0106987 0)
(0.176389 -0.0100116 -1.40332e-19)
(0.18132 -0.00930505 1.40854e-19)
(0.185934 -0.00857134 -1.43518e-19)
(0.19022 -0.0078011 1.44242e-19)
(0.194163 -0.0069827 0)
(0.197747 -0.00610162 0)
(0.200947 -0.00513959 0)
(0.203736 -0.00407394 0)
(0.206079 -0.00287813 -1.56277e-19)
(0.207936 -0.00152149 4.76889e-19)
(0.209243 3.57987e-05 -3.23516e-19)
(0.209963 0.00185894 3.32424e-19)
(0.210027 0.004005 2.32193e-21)
(0.209341 0.00651275 -6.95973e-19)
(0.207807 0.00944083 3.57564e-19)
(0.205279 0.0128552 0)
(0.201695 0.0169232 0)
(0.196201 0.0218033 0)
(0.19074 0.0275361 1.27231e-18)
(0.188152 0.0345891 8.58086e-19)
(0.189164 0.0436113 2.96865e-21)
(0.193903 0.0549542 -3.65997e-19)
(0.202582 0.0686317 -5.32477e-18)
(0.21545 0.0844909 4.81411e-18)
(0.232389 0.102259 2.74088e-19)
(0.252943 0.121576 -2.51401e-19)
(0.276638 0.142141 0)
(0.302984 0.163861 -1.0737e-19)
(0.331559 0.1869 6.63108e-18)
(0.362808 0.211553 -6.16759e-18)
(0.398158 0.238032 5.57023e-18)
(0.439868 0.265958 -5.10212e-18)
(0.491391 0.293571 -8.56277e-18)
(0.555799 0.31702 -1.28364e-20)
(0.633105 0.330122 2.88573e-18)
(0.71886 0.325087 -2.09273e-18)
(0.803046 0.295102 -1.61388e-21)
(0.869836 0.240007 -4.03306e-19)
(0.904346 0.172044 1.1865e-19)
(0.90791 0.109912 0)
(0.893956 0.0651183 -3.64066e-22)
(0.893277 0.0403131 -2.39096e-21)
(0.881338 0.0130322 4.65349e-20)
(0.861441 -0.0151094 3.38211e-21)
(0.822232 -0.0440943 -1.5552e-21)
(0.754564 -0.0669523 -2.43964e-21)
(0.65854 -0.0757042 0)
(0.539885 -0.0692377 2.59609e-18)
(0.406002 -0.048976 -1.31136e-20)
(0.265748 -0.019413 -7.77196e-20)
(0.131981 0.0124611 9.48792e-20)
(0.031353 0.0391599 0)
(-0.030576 0.0607384 0)
(-0.0605979 0.0743846 0)
(-0.0800815 0.0849663 1.70079e-19)
(-0.0940347 0.0911051 -5.369e-18)
(-0.105011 0.092838 0)
(-0.113796 0.0904351 -2.69976e-18)
(-0.120865 0.0842151 -1.63263e-19)
(-0.126425 0.0745845 -5.94732e-21)
(-0.130553 0.0621895 3.12474e-19)
(-0.133236 0.0478646 0)
(-0.134189 0.0324815 0)
(-0.132489 0.017015 3.03208e-19)
(-0.126724 0.00288668 -2.88393e-19)
(-0.118366 -0.00846456 -1.43738e-19)
(-0.11005 -0.0169948 1.37177e-19)
(-0.100793 -0.0230963 -1.42665e-19)
(-0.0907686 -0.0273083 1.39834e-19)
(-0.080115 -0.0301512 -1.48336e-19)
(-0.0689828 -0.0320162 1.47291e-19)
(-0.0575237 -0.0331776 1.57049e-19)
(-0.0458482 -0.0338432 4.9907e-21)
(-0.0340877 -0.0341442 4.87978e-21)
(-0.0223182 -0.0341528 -3.40804e-19)
(-0.0106085 -0.0339349 -4.61499e-21)
(0.00105354 -0.0335454 -4.45438e-21)
(0.0125112 -0.0330298 1.80898e-19)
(0.0237291 -0.0324239 0)
(0.0347306 -0.0317292 0)
(0.0454608 -0.0309647 0)
(0.0559215 -0.0301539 0)
(0.0660982 -0.0293011 9.67034e-20)
(0.0759863 -0.0284167 -9.596e-20)
(0.0855835 -0.0275092 0)
(0.0948888 -0.026586 0)
(0.103905 -0.0256528 4.99509e-20)
(0.112632 -0.0247215 -4.9704e-20)
(0.121068 -0.0237931 0)
(0.129219 -0.0228687 0)
(0.137086 -0.0219571 3.93127e-25)
(0.144669 -0.0210603 -3.92038e-25)
(0.151966 -0.0201778 0)
(0.158979 -0.0193076 0)
(0.165707 -0.0184465 -5.31453e-20)
(0.172152 -0.0175915 5.30949e-20)
(0.178317 -0.0167401 0)
(0.184199 -0.0158888 1.08876e-19)
(0.189798 -0.015033 -1.08914e-19)
(0.19511 -0.0141674 1.1073e-19)
(0.200133 -0.0132858 -1.10879e-19)
(0.20486 -0.0123805 0)
(0.209285 -0.0114424 0)
(0.213397 -0.0104604 -1.14975e-19)
(0.217184 -0.00942097 1.15395e-19)
(0.220632 -0.00830707 0)
(0.22372 -0.00709782 0)
(0.226426 -0.00576755 0)
(0.228722 -0.00428591 2.44412e-19)
(0.230576 -0.00261688 1.6441e-21)
(0.231947 -0.000718435 -2.51089e-19)
(0.23278 0.00147605 0)
(0.233059 0.00403083 2.61497e-19)
(0.232705 0.0069967 -5.31488e-19)
(0.23165 0.0104438 2.70872e-19)
(0.229792 0.0144618 0)
(0.227082 0.0192324 -2.88797e-19)
(0.222873 0.0249137 -2.6376e-19)
(0.218836 0.0315762 -6.2187e-19)
(0.21747 0.0395907 2.4989e-18)
(0.219515 0.0493718 -4.74488e-18)
(0.225057 0.0611349 -4.40881e-18)
(0.234374 0.0748988 4.07582e-18)
(0.247756 0.0905263 -7.42377e-18)
(0.265116 0.107793 0)
(0.286029 0.126436 0)
(0.310071 0.14627 0)
(0.33687 0.167289 1.67032e-19)
(0.366217 0.189642 -2.65344e-19)
(0.398731 0.213429 4.73608e-18)
(0.435878 0.23847 -8.55437e-18)
(0.479707 0.263816 -3.74373e-18)
(0.532841 0.287102 3.37266e-18)
(0.596873 0.304305 2.63521e-18)
(0.670224 0.310082 9.145e-21)
(0.747488 0.298929 1.33578e-21)
(0.819561 0.267712 -3.13069e-21)
(0.874905 0.219321 3.49312e-19)
(0.905019 0.163492 -1.00543e-19)
(0.911931 0.111235 2.97361e-20)
(0.904139 0.0702817 0)
(0.907279 0.0453038 1.98987e-21)
(0.897247 0.0198337 -3.82677e-20)
(0.880886 -0.00470229 0)
(0.851456 -0.0290377 0)
(0.802782 -0.0504269 -2.37108e-21)
(0.733376 -0.0640369 2.74393e-21)
(0.645316 -0.0677158 -1.89122e-18)
(0.542549 -0.0611048 -5.92094e-20)
(0.430823 -0.0459313 1.0091e-19)
(0.315716 -0.025864 -1.29111e-19)
(0.205519 -0.00382839 7.7838e-20)
(0.109621 0.0188383 1.80114e-19)
(0.0410036 0.0379893 5.85705e-18)
(-0.00481968 0.0537266 0)
(-0.0338288 0.0640494 3.25227e-19)
(-0.0535065 0.069482 4.60141e-21)
(-0.0676174 0.0703308 2.047e-18)
(-0.0778749 0.0669374 2.29129e-18)
(-0.0851236 0.0598215 0)
(-0.0899216 0.0497038 0)
(-0.0924971 0.0374657 0)
(-0.0927169 0.0239433 1.11437e-18)
(-0.0895265 0.00971957 0)
(-0.0813076 -0.00410851 0)
(-0.0714182 -0.0156016 0)
(-0.0620382 -0.0243837 0)
(-0.0523079 -0.0308304 -2.75791e-19)
(-0.0422379 -0.0353859 2.71129e-19)
(-0.0318479 -0.0385214 2.87898e-19)
(-0.0211876 -0.0406107 -2.85842e-19)
(-0.0103369 -0.0419277 0)
(0.000689912 -0.0426695 1.55429e-19)
(0.0117029 -0.0429665 4.56203e-21)
(0.0226538 -0.0429268 -1.53631e-19)
(0.03351 -0.0426347 0)
(0.0442413 -0.0421351 -1.60139e-19)
(0.0548005 -0.0414676 3.18806e-19)
(0.0651593 -0.040685 -1.58853e-19)
(0.0753006 -0.0398051 0)
(0.0852045 -0.0388455 0)
(0.0948626 -0.0378294 8.27611e-20)
(0.104265 -0.0367674 -8.18668e-20)
(0.113407 -0.0356711 0)
(0.122288 -0.0345506 0)
(0.130904 -0.0334143 8.47541e-20)
(0.139258 -0.0322695 -1.26715e-19)
(0.147349 -0.0311251 4.23139e-20)
(0.155177 -0.0299847 -2.15495e-20)
(0.162743 -0.0288512 2.14211e-20)
(0.170048 -0.0277299 -3.32499e-25)
(0.177092 -0.0266227 3.30862e-25)
(0.183873 -0.0255296 -2.2036e-20)
(0.190392 -0.024449 2.19486e-20)
(0.196648 -0.0233781 0)
(0.202643 -0.022314 0)
(0.208375 -0.0212533 0)
(0.213843 -0.0201917 0)
(0.219047 -0.0191242 0)
(0.223982 -0.0180446 0)
(0.228646 -0.0169455 1.85179e-19)
(0.233033 -0.0158183 -1.8513e-19)
(0.237136 -0.0146523 -1.879e-19)
(0.240946 -0.013435 1.88055e-19)
(0.244453 -0.0121507 0)
(0.247644 -0.0107805 0)
(0.250503 -0.00930119 0)
(0.253012 -0.00768463 -1.96528e-19)
(0.255148 -0.0058974 3.96162e-19)
(0.256885 -0.00390008 1.32383e-21)
(0.258198 -0.00164589 2.05326e-19)
(0.259034 0.000927968 -8.2462e-19)
(0.259405 0.00388736 8.34311e-19)
(0.259247 0.00729682 -4.21333e-19)
(0.258514 0.0112372 0)
(0.257143 0.0158164 0)
(0.255102 0.0212191 4.47598e-19)
(0.251883 0.0276044 -4.82823e-19)
(0.249046 0.0350504 -4.71539e-19)
(0.248893 0.043832 4.65042e-19)
(0.252162 0.0542025 2.04098e-20)
(0.258838 0.0662735 3.44097e-18)
(0.26918 0.0800321 -3.99041e-19)
(0.283452 0.0953465 2.9609e-18)
(0.301574 0.112041 6.79161e-19)
(0.323157 0.129941 2.18359e-18)
(0.347851 0.148943 1.45234e-19)
(0.375407 0.169065 -1.37666e-19)
(0.405791 0.190367 -8.03737e-18)
(0.439715 0.2127 -1.19742e-19)
(0.47855 0.235488 3.45537e-18)
(0.523936 0.257319 3.23218e-18)
(0.577521 0.275534 -4.29644e-20)
(0.63953 0.286405 -2.27295e-18)
(0.707272 0.285859 0)
(0.775231 0.270709 0)
(0.836033 0.240541 0)
(0.882024 0.199379 -4.28152e-19)
(0.908744 0.154132 0)
(0.917964 0.110708 -2.58413e-20)
(0.91483 0.074114 0)
(0.921838 0.0497612 1.31122e-21)
(0.914024 0.0263266 -1.3555e-21)
(0.900829 0.00460926 -2.06115e-19)
(0.87821 -0.0161585 -4.44183e-19)
(0.842589 -0.0351169 -2.00752e-21)
(0.792669 -0.0498375 2.28109e-21)
(0.728861 -0.0585655 0)
(0.652852 -0.0603647 0)
(0.56813 -0.0555124 -2.32444e-18)
(0.478201 -0.045792 0)
(0.386101 -0.0327016 0)
(0.294535 -0.0174233 0)
(0.209191 -0.00125443 -4.40517e-18)
(0.135667 0.0149565 2.98795e-19)
(0.0784436 0.0285148 -3.05063e-19)
(0.0370253 0.03791 3.0962e-19)
(0.00812413 0.0427799 -3.04576e-19)
(-0.011523 0.0430426 -5.05891e-18)
(-0.0239167 0.0392196 8.59959e-19)
(-0.0312887 0.0321566 -5.56866e-19)
(-0.0346866 0.0226364 0)
(-0.0345249 0.0114316 -1.12018e-18)
(-0.0292409 -0.00130064 0)
(-0.01884 -0.014287 0)
(-0.00717361 -0.0253259 0)
(0.00328731 -0.0339041 0)
(0.0133312 -0.0402378 0)
(0.023234 -0.0448026 0)
(0.0330939 -0.0480016 0)
(0.0429575 -0.0501587 0)
(0.0528218 -0.0515221 0)
(0.0626717 -0.05226 0)
(0.0724672 -0.0525028 0)
(0.0821826 -0.0523736 0)
(0.0917842 -0.0519611 0)
(0.101245 -0.051318 0)
(0.110544 -0.0504885 0)
(0.119666 -0.0495207 0)
(0.128592 -0.0484428 0)
(0.137313 -0.0472774 0)
(0.14582 -0.0460467 0)
(0.154108 -0.0447658 0)
(0.162173 -0.043448 0)
(0.170012 -0.0421045 0)
(0.177624 -0.040745 0)
(0.18501 -0.0393774 -7.43305e-20)
(0.192168 -0.0380094 7.36403e-20)
(0.199099 -0.0366456 -3.74232e-20)
(0.205801 -0.0352898 3.71217e-20)
(0.212275 -0.0339456 0)
(0.21852 -0.0326146 0)
(0.224535 -0.0312971 0)
(0.230318 -0.0299915 3.80895e-20)
(0.235868 -0.0286954 -3.7881e-20)
(0.241185 -0.0274058 0)
(0.246268 -0.0261185 0)
(0.251114 -0.024829 0)
(0.25572 -0.0235313 0)
(0.260085 -0.0222184 1.56176e-19)
(0.264203 -0.0208822 1.18428e-21)
(0.268069 -0.0195128 -3.14297e-19)
(0.271678 -0.0180984 1.57439e-19)
(0.27502 -0.0166248 0)
(0.278087 -0.015075 0)
(0.280867 -0.0134282 0)
(0.283349 -0.0116595 -3.25302e-19)
(0.285517 -0.0097388 3.25612e-19)
(0.287355 -0.00763039 -3.30488e-19)
(0.288843 -0.00529233 3.31323e-19)
(0.289964 -0.0026756 0)
(0.290678 0.00027572 -3.40467e-19)
(0.291011 0.00362784 3.40655e-19)
(0.290916 0.00745717 0)
(0.290366 0.0118529 0)
(0.289331 0.0169346 3.52385e-19)
(0.287797 0.0228809 -3.5426e-19)
(0.285349 0.0298466 0)
(0.283521 0.0379087 -7.33126e-19)
(0.284544 0.0472479 -2.96884e-18)
(0.289081 0.0579966 6.43101e-18)
(0.29705 0.0702031 -3.37744e-18)
(0.308639 0.0838119 -2.53556e-18)
(0.32405 0.0986911 -2.66059e-18)
(0.343185 0.114704 1.79845e-21)
(0.365684 0.131733 -2.08551e-18)
(0.391263 0.149709 2.43533e-19)
(0.419775 0.16861 0)
(0.451291 0.188346 4.89744e-18)
(0.486496 0.208509 1.99109e-19)
(0.526513 0.228192 -8.63448e-20)
(0.572414 0.245723 8.19324e-20)
(0.624868 0.258521 0)
(0.683039 0.263561 -1.34098e-20)
(0.743753 0.258231 1.51499e-18)
(0.80214 0.241297 -6.19905e-19)
(0.852886 0.213928 5.75126e-21)
(0.891371 0.179967 -6.14845e-20)
(0.915337 0.143813 0)
(0.925997 0.108279 1.20825e-21)
(0.926386 0.0764307 -1.2517e-21)
(0.937257 0.0532587 0)
(0.931844 0.0321508 0)
(0.921654 0.0128568 3.88098e-19)
(0.904139 -0.00518681 7.82753e-19)
(0.877534 -0.0217506 4.52282e-19)
(0.841375 -0.0357704 0)
(0.795688 -0.0462471 5.99417e-19)
(0.740996 -0.0523927 -2.46537e-20)
(0.679155 -0.0539203 1.76126e-18)
(0.612389 -0.0515079 0)
(0.542209 -0.0459664 -1.03206e-18)
(0.469587 -0.0380568 -1.65506e-19)
(0.396001 -0.0284718 0)
(0.323249 -0.0178001 2.10495e-19)
(0.254506 -0.00705417 -2.25991e-19)
(0.193683 0.00257078 -4.8528e-19)
(0.143719 0.00967606 5.02271e-19)
(0.105673 0.0130392 2.04637e-18)
(0.0791963 0.0124106 0)
(0.0626302 0.00842002 -5.32548e-19)
(0.0540905 0.00173209 5.27403e-19)
(0.0520891 -0.00707024 0)
(0.0584922 -0.0177581 0)
(0.0706234 -0.0287929 0)
(0.0831426 -0.0381826 0)
(0.0937921 -0.0455182 0)
(0.103467 -0.0511139 -4.91195e-19)
(0.112556 -0.0552606 4.7378e-19)
(0.121262 -0.0582169 4.91913e-19)
(0.129714 -0.0602158 -4.77395e-19)
(0.137987 -0.0614516 0)
(0.146116 -0.0620726 0)
(0.154122 -0.0621986 0)
(0.162012 -0.0619369 0)
(0.169778 -0.0613713 2.52502e-19)
(0.17741 -0.0605619 -5.0105e-19)
(0.184904 -0.0595571 2.48808e-19)
(0.192251 -0.0584006 2.55411e-19)
(0.199444 -0.0571246 -2.51143e-19)
(0.206476 -0.0557552 0)
(0.213343 -0.0543146 0)
(0.220042 -0.0528202 -1.29168e-19)
(0.226569 -0.0512867 1.27432e-19)
(0.232922 -0.0497263 0)