/*--------------------------------*- C++ -*----------------------------------*\
| =========                 |                                                 |
| \\      /  F ield         | OpenFOAM: The Open Source CFD Toolbox           |
|  \\    /   O peration     | Version:  v1912                                 |
|   \\  /    A nd           | Website:  www.OpenFOAM.com                      |
|    \\/     M anipulation  |                                                 |
\*---------------------------------------------------------------------------*/
FoamFile
{
    version     2.0;
    format      ascii;
    class       volVectorField;
    object      UForcing;
}
// * * * * * * * * * * * * * * * * * * * * * * * * * * * * * * * * * * * * * //

dimensions      [0 1 -2 0 0 0 0];

internalField   nonuniform List<vector>
50
(
(0.0 0.0 0.0)
(0.0 0.0 0.0)
(0.0 0.0 0.0)
(0.0 0.0 0.0)
(0.0 0.0 0.0)
(0.0 0.0 0.0)
(0.0 0.0 0.0)
(0.0 0.0 0.0)
(0.0 0.0 0.0)
(0.0 0.0 0.0)
(0.0 0.0 0.0)
(0.0 0.0 0.0)
(0.0 0.0 0.0)
(0.0 0.0 0.0)
(0.0 0.0 0.0)
(0.0 0.0 0.0)
(0.0 0.0 0.0)
(0.0 0.0 0.0)
(0.0 0.0 0.0)
(0.0 0.0 0.0)
(0.0 0.0 0.0)
(0.0 0.0 0.0)
(0.0 0.0 0.0)
(0.0 0.0 0.0)
(0.0 0.0 0.0)
(0.0 0.0 0.0)
(0.0 0.0 0.0)
(0.0 0.0 0.0)
(0.0 0.0 0.0)
(0.0 0.0 0.0)
(0.0 0.0 0.0)
(0.0 0.0 0.0)
(0.0 0.0 0.0)
(0.0 0.0 0.0)
(0.0 0.0 0.0)
(0.0 0.0 0.0)
(0.0 0.0 0.0)
(0.0 0.0 0.0)
(0.0 0.0 0.0)
(0.0 0.0 0.0)
(0.0 0.0 0.0)
(0.0 0.0 0.0)
(0.0 0.0 0.0)
(0.0 0.0 0.0)
(0.0 0.0 0.0)
(0.0 0.0 0.0)
(0.0 0.0 0.0)
(0.0 0.0 0.0)
(0.0 0.0 0.0)
(0.0 0.0 0.0)
);

boundaryField
{
    top
    {
        type            symmetryPlane;
    }
    bottom
    {
        type            fixedValue;
        value           uniform (0.0 0.0 0.0);
    }
    inlet
    {
        type            cyclic;
    }
    outlet
    {
        type            cyclic;
    }
    defaultFaces
    {
        type            empty;
    }
}

// ************************************************************************* //
